 vasp.5.4.4.18Apr17-6-g9f103f2a35 (build Sep 27 2018 15:53:14) complex          
  
 executed on             LinuxIFC date 2019.11.26  21:59:21
 running on   24 total cores
 distrk:  each k-point on   24 cores,    1 groups
 distr:  one band on NCORES_PER_BAND=   6 cores,    4 groups


--------------------------------------------------------------------------------------------------------


 INCAR:
 POTCAR:    PAW_PBE Fe 06Sep2000                  
 POTCAR:    PAW_PBE Se 06Sep2000                  
 POTCAR:    PAW_PBE Li 17Jan2003                  
 POTCAR:    PAW_PBE Fe 06Sep2000                  
   VRHFIN =Fe:  d7 s1                                                           
   LEXCH  = PE                                                                  
   EATOM  =   594.3153 eV,   43.6809 Ry                                         
                                                                                
   TITEL  = PAW_PBE Fe 06Sep2000                                                
   LULTRA =        F    use ultrasoft PP ?                                      
   IUNSCR =        1    unscreen: 0-lin 1-nonlin 2-no                           
   RPACOR =    2.000    partial core radius                                     
   POMASS =   55.847; ZVAL   =    8.000    mass and valenz                      
   RCORE  =    2.300    outmost cutoff radius                                   
   RWIGS  =    2.460; RWIGS  =    1.302    wigner-seitz radius (au A)           
   ENMAX  =  267.882; ENMIN  =  200.911 eV                                      
   RCLOC  =    1.701    cutoff for local pot                                    
   LCOR   =        T    correct aug charges                                     
   LPAW   =        T    paw PP                                                  
   EAUG   =  511.368                                                            
   DEXC   =    0.000                                                            
   RMAX   =    2.356    core radius for proj-oper                               
   RAUG   =    1.300    factor for augmentation sphere                          
   RDEP   =    2.442    radius for radial grids                                 
   RDEPT  =    1.890    core radius for aug-charge                              
                                                                                
   Atomic configuration                                                         
    9 entries                                                                   
     n  l   j            E        occ.                                          
     1  0  0.50     -6993.8440   2.0000                                         
     2  0  0.50      -814.6047   2.0000                                         
     2  1  1.50      -693.3689   6.0000                                         
     3  0  0.50       -89.4732   2.0000                                         
     3  1  1.50       -55.6373   6.0000                                         
     3  2  2.50        -3.8151   7.0000                                         
     4  0  0.50        -4.2551   1.0000                                         
     4  1  1.50        -3.4015   0.0000                                         
     4  3  2.50        -1.3606   0.0000                                         
   Description                                                                  
     l       E           TYP  RCUT    TYP  RCUT                                 
     2     -3.8151135     23  2.300                                             
     2     -5.1756961     23  2.300                                             
     0     -4.2550963     23  2.300                                             
     0      7.2035603     23  2.300                                             
     1     -2.7211652     23  2.300                                             
     1     18.4316424     23  2.300                                             
  local pseudopotential read in
  partial core-charges read in
  partial kinetic energy density read in
  atomic valenz-charges read in
  non local Contribution for L=           2  read in
    real space projection operators read in
  non local Contribution for L=           2  read in
    real space projection operators read in
  non local Contribution for L=           0  read in
    real space projection operators read in
  non local Contribution for L=           0  read in
    real space projection operators read in
  non local Contribution for L=           1  read in
    real space projection operators read in
  non local Contribution for L=           1  read in
    real space projection operators read in
    PAW grid and wavefunctions read in
 
   number of l-projection  operators is LMAX  =           6
   number of lm-projection operators is LMMAX =          18
 
 POTCAR:    PAW_PBE Se 06Sep2000                  
   VRHFIN =Se: s2p4                                                             
   LEXCH  = PE                                                                  
   EATOM  =   257.1286 eV,   18.8984 Ry                                         
                                                                                
   TITEL  = PAW_PBE Se 06Sep2000                                                
   LULTRA =        F    use ultrasoft PP ?                                      
   IUNSCR =        1    unscreen: 0-lin 1-nonlin 2-no                           
   RPACOR =    1.900    partial core radius                                     
   POMASS =   78.960; ZVAL   =    6.000    mass and valenz                      
   RCORE  =    2.100    outmost cutoff radius                                   
   RWIGS  =    2.200; RWIGS  =    1.164    wigner-seitz radius (au A)           
   ENMAX  =  211.555; ENMIN  =  158.666 eV                                      
   ICORE  =        3    local potential                                         
   LCOR   =        T    correct aug charges                                     
   LPAW   =        T    paw PP                                                  
   EAUG   =  446.842                                                            
   DEXC   =    0.000                                                            
   RMAX   =    2.147    core radius for proj-oper                               
   RAUG   =    1.300    factor for augmentation sphere                          
   RDEP   =    2.177    radius for radial grids                                 
   RDEPT  =    1.928    core radius for aug-charge                              
                                                                                
   Atomic configuration                                                         
   10 entries                                                                   
     n  l   j            E        occ.                                          
     1  0  0.50    -12503.4787   2.0000                                         
     2  0  0.50     -1606.9547   2.0000                                         
     2  1  1.50     -1413.3140   6.0000                                         
     3  0  0.50      -213.4885   2.0000                                         
     3  1  1.50      -152.9538   6.0000                                         
     3  2  2.50       -53.1221  10.0000                                         
     4  0  0.50       -17.2865   2.0000                                         
     4  1  0.50        -6.5110   4.0000                                         
     4  2  2.50        -6.8029   0.0000                                         
     4  3  2.50        -6.8029   0.0000                                         
   Description                                                                  
     l       E           TYP  RCUT    TYP  RCUT                                 
     0    -17.2865377     23  2.100                                             
     0    -15.3094411     23  2.100                                             
     1     -6.5110275     23  2.100                                             
     1     -0.0695192     23  2.100                                             
     2     -6.8029130     23  2.100                                             
     3     -1.3605826      7  2.100                                             
  local pseudopotential read in
  partial core-charges read in
  partial kinetic energy density read in
  atomic valenz-charges read in
  non local Contribution for L=           0  read in
    real space projection operators read in
  non local Contribution for L=           0  read in
    real space projection operators read in
  non local Contribution for L=           1  read in
    real space projection operators read in
  non local Contribution for L=           1  read in
    real space projection operators read in
  non local Contribution for L=           2  read in
    real space projection operators read in
    PAW grid and wavefunctions read in
 
   number of l-projection  operators is LMAX  =           5
   number of lm-projection operators is LMMAX =          13
 
 POTCAR:    PAW_PBE Li 17Jan2003                  
   VRHFIN =Li: s1p0                                                             
   LEXCH  = PE                                                                  
   EATOM  =     5.3001 eV,    0.3895 Ry                                         
                                                                                
   TITEL  = PAW_PBE Li 17Jan2003                                                
   LULTRA =        F    use ultrasoft PP ?                                      
   IUNSCR =        1    unscreen: 0-lin 1-nonlin 2-no                           
   RPACOR =    1.500    partial core radius                                     
   POMASS =    7.010; ZVAL   =    1.000    mass and valenz                      
   RCORE  =    2.050    outmost cutoff radius                                   
   RWIGS  =    2.600; RWIGS  =    1.376    wigner-seitz radius (au A)           
   ENMAX  =  140.000; ENMIN  =  100.000 eV                                      
   ICORE  =        2    local potential                                         
   LCOR   =        T    correct aug charges                                     
   LPAW   =        T    paw PP                                                  
   EAUG   =  331.638                                                            
   DEXC   =    0.000                                                            
   RMAX   =    2.098    core radius for proj-oper                               
   RAUG   =    1.300    factor for augmentation sphere                          
   RDEP   =    2.094    radius for radial grids                                 
   RDEPT  =    1.810    core radius for aug-charge                              
                                                                                
   Atomic configuration                                                         
    4 entries                                                                   
     n  l   j            E        occ.                                          
     1  0  0.50       -51.8549   2.0000                                         
     2  0  0.50        -2.8742   1.0000                                         
     2  1  0.50        -1.3606   0.0000                                         
     3  2  1.50        -1.3606   0.0000                                         
   Description                                                                  
     l       E           TYP  RCUT    TYP  RCUT                                 
     0     -2.8742052     23  2.050                                             
     0     27.2116520     23  2.050                                             
     1     -1.3605826     23  2.050                                             
     2     -1.3605826     23  2.050                                             
  local pseudopotential read in
  partial core-charges read in
  partial kinetic energy density read in
  atomic valenz-charges read in
  non local Contribution for L=           0  read in
    real space projection operators read in
  non local Contribution for L=           0  read in
    real space projection operators read in
  non local Contribution for L=           1  read in
    real space projection operators read in
    PAW grid and wavefunctions read in
 
   number of l-projection  operators is LMAX  =           3
   number of lm-projection operators is LMMAX =           5
 
  PAW_PBE Fe 06Sep2000                  :
 energy of atom  1       EATOM= -594.3153
 kinetic energy error for atom=    0.0088 (will be added to EATOM!!)
  PAW_PBE Se 06Sep2000                  :
 energy of atom  2       EATOM= -257.1286
 kinetic energy error for atom=    0.0020 (will be added to EATOM!!)
  PAW_PBE Li 17Jan2003                  :
 energy of atom  3       EATOM=   -5.3001
 kinetic energy error for atom=    0.0000 (will be added to EATOM!!)
 
 
 POSCAR: Fe2Se2Li2 Final Version (2019.11.26)    
  positions in direct lattice
  velocities in cartesian coordinates
 exchange correlation table for  LEXCH =        8
   RHO(1)=    0.500       N(1)  =     2000
   RHO(2)=  100.500       N(2)  =     4000
 


--------------------------------------------------------------------------------------------------------


 ion  position               nearest neighbor table
   1  0.000  0.000  0.500-   4 2.60   4 2.60   3 2.60   3 2.60   2 2.62   2 2.62   2 2.62   2 2.62
                             5 2.87   6 2.87   6 2.87   5 2.87
   2  0.500  0.500  0.500-   4 2.60   4 2.60   3 2.60   3 2.60   1 2.62   1 2.62   1 2.62   1 2.62
                             5 2.87   6 2.87   5 2.87   6 2.87
   3  0.000  0.500  0.409-   1 2.60   2 2.60   1 2.60   2 2.60   6 2.65   6 2.65   6 2.65   6 2.65

   4  0.500  0.000  0.591-   1 2.60   2 2.60   2 2.60   1 2.60   5 2.65   5 2.65   5 2.65   5 2.65

   5  0.000  0.500  0.610-   4 2.65   4 2.65   4 2.65   4 2.65   2 2.87   2 2.87   1 2.87   1 2.87

   6  0.500  0.000  0.390-   3 2.65   3 2.65   3 2.65   3 2.65   2 2.87   1 2.87   1 2.87   2 2.87

 
  LATTYP: Found a simple tetragonal cell.
 ALAT       =     3.7117397785
 C/A-ratio  =     5.3883087699
  
  Lattice vectors:
  
 A1 = (   3.7117397785,   0.0000000000,   0.0000000000)
 A2 = (   0.0000000000,   3.7117397785,   0.0000000000)
 A3 = (   0.0000000000,   0.0000000000,  20.0000000000)


Analysis of symmetry for initial positions (statically):
=====================================================================
 Subroutine PRICEL returns:
 Original cell was already a primitive cell.
 

 Routine SETGRP: Setting up the symmetry group for a 
 simple tetragonal supercell.


 Subroutine GETGRP returns: Found 16 space group operations
 (whereof  8 operations were pure point group operations)
 out of a pool of 16 trial point group operations.


The static configuration has the point symmetry D_2d.
 The point group associated with its full space group is D_4h.


Analysis of symmetry for dynamics (positions and initial velocities):
=====================================================================
 Subroutine PRICEL returns:
 Original cell was already a primitive cell.
 

 Routine SETGRP: Setting up the symmetry group for a 
 simple tetragonal supercell.


 Subroutine GETGRP returns: Found 16 space group operations
 (whereof  8 operations were pure point group operations)
 out of a pool of 16 trial point group operations.


The dynamic configuration has the point symmetry D_2d.
 The point group associated with its full space group is D_4h.


Analysis of structural, dynamic, and magnetic symmetry:
=====================================================================
 Subroutine PRICEL returns:
 Original cell was already a primitive cell.
 

 Routine SETGRP: Setting up the symmetry group for a 
 simple tetragonal supercell.


 Subroutine GETGRP returns: Found 16 space group operations
 (whereof  8 operations were pure point group operations)
 out of a pool of 16 trial point group operations.


The magnetic configuration has the point symmetry D_2d.
 The point group associated with its full space group is D_4h.


 Subroutine INISYM returns: Found 16 space group operations
 (whereof  8 operations are pure point group operations),
 and found     1 'primitive' translations

 
 
 KPOINTS: K-Path Generated by VASPKIT.            
  interpolating k-points between supplied coordinates
  k-points in reciprocal lattice
Space group operators:
 irot       det(A)        alpha          n_x          n_y          n_z        tau_x        tau_y        tau_z
    1     1.000000     0.000000     1.000000     0.000000     0.000000     0.000000     0.000000     0.000000
    2    -1.000000    90.000000     0.000000     0.000000    -1.000000     0.000000     0.000000     0.000000
    3     1.000000   180.000000     0.000000     0.000000     1.000000     0.000000     0.000000     0.000000
    4    -1.000000    90.000000     0.000000     0.000000     1.000000     0.000000     0.000000     0.000000
    5    -1.000000   180.000000     0.000000     1.000000     0.000000     0.000000     0.000000     0.000000
    6     1.000000   180.000000     0.707107     0.707107     0.000000     0.000000     0.000000     0.000000
    7    -1.000000   180.000000     1.000000     0.000000     0.000000     0.000000     0.000000     0.000000
    8     1.000000   180.000000     0.707107    -0.707107     0.000000     0.000000     0.000000     0.000000
    9    -1.000000     0.000000     1.000000     0.000000     0.000000     0.500000     0.500000     0.000000
   10     1.000000    90.000000     0.000000     0.000000    -1.000000     0.500000     0.500000     0.000000
   11    -1.000000   180.000000     0.000000     0.000000     1.000000     0.500000     0.500000     0.000000
   12     1.000000    90.000000     0.000000     0.000000     1.000000     0.500000     0.500000     0.000000
   13     1.000000   180.000000     0.000000     1.000000     0.000000     0.500000     0.500000     0.000000
   14    -1.000000   180.000000     0.707107     0.707107     0.000000     0.500000     0.500000     0.000000
   15     1.000000   180.000000     1.000000     0.000000     0.000000     0.500000     0.500000     0.000000
   16    -1.000000   180.000000     0.707107    -0.707107     0.000000     0.500000     0.500000     0.000000


--------------------------------------------------------------------------------------------------------




 Dimension of arrays:
   k-points           NKPTS =    600   k-points in BZ     NKDIM =    600   number of bands    NBANDS=     24
   number of dos      NEDOS =    301   number of ions     NIONS =      6
   non local maximal  LDIM  =      6   non local SUM 2l+1 LMDIM =     18
   total plane-waves  NPLWV =  80640
   max r-space proj   IRMAX =      1   max aug-charges    IRDMAX=  12961
   dimension x,y,z NGX =    24 NGY =   24 NGZ =  140
   dimension x,y,z NGXF=    48 NGYF=   48 NGZF=  280
   support grid    NGXF=    48 NGYF=   48 NGZF=  280
   ions per type =               2   2   2
   NGX,Y,Z   is equivalent  to a cutoff of  10.75, 10.75, 11.64 a.u.
   NGXF,Y,Z  is equivalent  to a cutoff of  21.50, 21.50, 23.27 a.u.

 SYSTEM =  Band                                    
 POSCAR =  Fe2Se2Li2 Final Version (2019.11.26)    

 Startparameter for this run:
   NWRITE =      2    write-flag & timer
   PREC   = accura    normal or accurate (medium, high low for compatibility)
   ISTART =      0    job   : 0-new  1-cont  2-samecut
   ICHARG =     11    charge: 1-file 2-atom 10-const
   ISPIN  =      2    spin polarized calculation?
   LNONCOLLINEAR =      F non collinear calculations
   LSORBIT =      F    spin-orbit coupling
   INIWAV =      1    electr: 0-lowe 1-rand  2-diag
   LASPH  =      F    aspherical Exc in radial PAW
   METAGGA=      F    non-selfconsistent MetaGGA calc.

 Electronic Relaxation 1
   ENCUT  =  400.0 eV  29.40 Ry    5.42 a.u.   6.05  6.05 32.61*2*pi/ulx,y,z
   ENINI  =  400.0     initial cutoff
   ENAUG  =  511.4 eV  augmentation charge cutoff
   NELM   =    300;   NELMIN=  6; NELMDL= -5     # of ELM steps 
   EDIFF  = 0.1E-07   stopping-criterion for ELM
   LREAL  =      F    real-space projection
   NLSPLINE    = F    spline interpolate recip. space projectors
   LCOMPAT=      F    compatible to vasp.4.4
   GGA_COMPAT  = T    GGA compatible to vasp.4.4-vasp.4.6
   LMAXPAW     = -100 max onsite density
   LMAXMIX     =    4 max onsite mixed and CHGCAR
   VOSKOWN=      0    Vosko Wilk Nusair interpolation
   ROPT   =    0.00000   0.00000   0.00000
 Ionic relaxation
   EDIFFG = -.1E-02   stopping-criterion for IOM
   NSW    =      0    number of steps for IOM
   NBLOCK =      1;   KBLOCK =      1    inner block; outer block 
   IBRION =     -1    ionic relax: 0-MD 1-quasi-New 2-CG
   NFREE  =      0    steps in history (QN), initial steepest desc. (CG)
   ISIF   =      4    stress and relaxation
   IWAVPR =     10    prediction:  0-non 1-charg 2-wave 3-comb
   ISYM   =      2    0-nonsym 1-usesym 2-fastsym
   LCORR  =      T    Harris-Foulkes like correction to forces

   POTIM  = 0.1000    time-step for ionic-motion
   TEIN   =    0.0    initial temperature
   TEBEG  =    0.0;   TEEND  =   0.0 temperature during run
   SMASS  =  -3.00    Nose mass-parameter (am)
   estimated Nose-frequenzy (Omega)   =  0.10E-29 period in steps =****** mass=  -0.315E-27a.u.
   SCALEE = 1.0000    scale energy and forces
   NPACO  =    256;   APACO  = 16.0  distance and # of slots for P.C.
   PSTRESS=    0.0 pullay stress

  Mass of Ions in am
   POMASS =  55.85 78.96  7.01
  Ionic Valenz
   ZVAL   =   8.00  6.00  1.00
  Atomic Wigner-Seitz radii
   RWIGS  =  -1.00 -1.00 -1.00
  virtual crystal weights 
   VCA    =   1.00  1.00  1.00
   NELECT =      30.0000    total number of electrons
   NUPDOWN=      -1.0000    fix difference up-down

 DOS related values:
   EMIN   =  10.00;   EMAX   =-10.00  energy-range for DOS
   EFERMI =   0.00
   ISMEAR =     0;   SIGMA  =   0.05  broadening in eV -4-tet -1-fermi 0-gaus

 Electronic relaxation 2 (details)
   IALGO  =     38    algorithm
   LDIAG  =      T    sub-space diagonalisation (order eigenvalues)
   LSUBROT=      F    optimize rotation matrix (better conditioning)
   TURBO    =      0    0=normal 1=particle mesh
   IRESTART =      0    0=no restart 2=restart with 2 vectors
   NREBOOT  =      0    no. of reboots
   NMIN     =      0    reboot dimension
   EREF     =   0.00    reference energy to select bands
   IMIX   =      4    mixing-type and parameters
     AMIX     =   0.40;   BMIX     =  1.00
     AMIX_MAG =   1.60;   BMIX_MAG =  1.00
     AMIN     =   0.10
     WC   =   100.;   INIMIX=   1;  MIXPRE=   1;  MAXMIX= -45

 Intra band minimization:
   WEIMIN = 0.0000     energy-eigenvalue tresh-hold
   EBREAK =  0.10E-09  absolut break condition
   DEPER  =   0.30     relativ break condition  

   TIME   =   0.40     timestep for ELM

  volume/ion in A,a.u.               =      45.92       309.91
  Fermi-wavevector in a.u.,A,eV,Ry     =   0.781724  1.477245  8.314422  0.611093
  Thomas-Fermi vector in A             =   1.885301
 
 Write flags
   LWAVE        =      F    write WAVECAR
   LDOWNSAMPLE  =      F    k-point downsampling of WAVECAR
   LCHARG       =      F    write CHGCAR
   LVTOT        =      F    write LOCPOT, total local potential
   LVHAR        =      F    write LOCPOT, Hartree potential only
   LELF         =      F    write electronic localiz. function (ELF)
   LORBIT       =     11    0 simple, 1 ext, 2 COOP (PROOUT), +10 PAW based schemes


 Dipole corrections
   LMONO  =      F    monopole corrections only (constant potential shift)
   LDIPOL =      F    correct potential (dipole corrections)
   IDIPOL =      0    1-x, 2-y, 3-z, 4-all directions 
   EPSILON=  1.0000000 bulk dielectric constant

 LDA+U is selected, type is set to LDAUTYPE =  2
   angular momentum for each species LDAUL =     2   -1   -1
   U (eV)           for each species LDAUU =   3.0  0.0  0.0
   J (eV)           for each species LDAUJ =   0.0  0.0  0.0
 Exchange correlation treatment:
   GGA     =    --    GGA type
   LEXCH   =     8    internal setting for exchange type
   VOSKOWN=      0    Vosko Wilk Nusair interpolation
   LHFCALC =     F    Hartree Fock is set to
   LHFONE  =     F    Hartree Fock one center treatment
   AEXX    =    0.0000 exact exchange contribution

 Linear response parameters
   LEPSILON=     F    determine dielectric tensor
   LRPA    =     F    only Hartree local field effects (RPA)
   LNABLA  =     F    use nabla operator in PAW spheres
   LVEL    =     F    velocity operator in full k-point grid
   LINTERFAST=   F  fast interpolation
   KINTER  =     0    interpolate to denser k-point grid
   CSHIFT  =0.1000    complex shift for real part using Kramers Kronig
   OMEGAMAX=  -1.0    maximum frequency
   DEG_THRESHOLD= 0.2000000E-02 threshold for treating states as degnerate
   RTIME   =   -0.100 relaxation time in fs
  (WPLASMAI=    0.000 imaginary part of plasma frequency in eV, 0.658/RTIME)
   DFIELD  = 0.0000000 0.0000000 0.0000000 field for delta impulse in time
 
 Orbital magnetization related:
   ORBITALMAG=     F  switch on orbital magnetization
   LCHIMAG   =     F  perturbation theory with respect to B field
   DQ        =  0.001000  dq finite difference perturbation B field
   LLRAUG    =     F  two centre corrections for induced B field



--------------------------------------------------------------------------------------------------------


 Static calculation
 charge density and potential remain constant during run
 spin polarized calculation
 Variant of blocked Davidson
 Davidson routine will perform the subspace rotation
 perform sub-space diagonalisation
    after iterative eigenvector-optimisation
 no mixing
 using additional bands            9
 reciprocal scheme for non local part
 use partial core corrections
 calculate Harris-corrections to forces 
   (improved forces if not selfconsistent)
 use gradient corrections 
 WARNING: stress and forces are not correct
  (second derivative of E(xc) not defined)
 use of overlap-Matrix (Vanderbilt PP)
 Gauss-broadening in eV      SIGMA  =   0.05


--------------------------------------------------------------------------------------------------------


  energy-cutoff  :      400.00
  volume of cell :      275.54
      direct lattice vectors                 reciprocal lattice vectors
     3.711739779  0.000000000  0.000000000     0.269415438  0.000000000  0.000000000
     0.000000000  3.711739779  0.000000000     0.000000000  0.269415438  0.000000000
     0.000000000  0.000000000 20.000000000     0.000000000  0.000000000  0.050000000

  length of vectors
     3.711739779  3.711739779 20.000000000     0.269415438  0.269415438  0.050000000


 
 k-points in units of 2pi/SCALE and weight: K-Path Generated by VASPKIT.            
   0.13470772  0.13470772  0.00000000       0.002
   0.13403080  0.13403080  0.00000000       0.002
   0.13335387  0.13335387  0.00000000       0.002
   0.13267695  0.13267695  0.00000000       0.002
   0.13200003  0.13200003  0.00000000       0.002
   0.13132310  0.13132310  0.00000000       0.002
   0.13064618  0.13064618  0.00000000       0.002
   0.12996926  0.12996926  0.00000000       0.002
   0.12929233  0.12929233  0.00000000       0.002
   0.12861541  0.12861541  0.00000000       0.002
   0.12793849  0.12793849  0.00000000       0.002
   0.12726156  0.12726156  0.00000000       0.002
   0.12658464  0.12658464  0.00000000       0.002
   0.12590772  0.12590772  0.00000000       0.002
   0.12523079  0.12523079  0.00000000       0.002
   0.12455387  0.12455387  0.00000000       0.002
   0.12387695  0.12387695  0.00000000       0.002
   0.12320002  0.12320002  0.00000000       0.002
   0.12252310  0.12252310  0.00000000       0.002
   0.12184618  0.12184618  0.00000000       0.002
   0.12116926  0.12116926  0.00000000       0.002
   0.12049233  0.12049233  0.00000000       0.002
   0.11981541  0.11981541  0.00000000       0.002
   0.11913849  0.11913849  0.00000000       0.002
   0.11846156  0.11846156  0.00000000       0.002
   0.11778464  0.11778464  0.00000000       0.002
   0.11710772  0.11710772  0.00000000       0.002
   0.11643079  0.11643079  0.00000000       0.002
   0.11575387  0.11575387  0.00000000       0.002
   0.11507695  0.11507695  0.00000000       0.002
   0.11440002  0.11440002  0.00000000       0.002
   0.11372310  0.11372310  0.00000000       0.002
   0.11304618  0.11304618  0.00000000       0.002
   0.11236925  0.11236925  0.00000000       0.002
   0.11169233  0.11169233  0.00000000       0.002
   0.11101541  0.11101541  0.00000000       0.002
   0.11033848  0.11033848  0.00000000       0.002
   0.10966156  0.10966156  0.00000000       0.002
   0.10898464  0.10898464  0.00000000       0.002
   0.10830771  0.10830771  0.00000000       0.002
   0.10763079  0.10763079  0.00000000       0.002
   0.10695387  0.10695387  0.00000000       0.002
   0.10627694  0.10627694  0.00000000       0.002
   0.10560002  0.10560002  0.00000000       0.002
   0.10492310  0.10492310  0.00000000       0.002
   0.10424617  0.10424617  0.00000000       0.002
   0.10356925  0.10356925  0.00000000       0.002
   0.10289233  0.10289233  0.00000000       0.002
   0.10221541  0.10221541  0.00000000       0.002
   0.10153848  0.10153848  0.00000000       0.002
   0.10086156  0.10086156  0.00000000       0.002
   0.10018464  0.10018464  0.00000000       0.002
   0.09950771  0.09950771  0.00000000       0.002
   0.09883079  0.09883079  0.00000000       0.002
   0.09815387  0.09815387  0.00000000       0.002
   0.09747694  0.09747694  0.00000000       0.002
   0.09680002  0.09680002  0.00000000       0.002
   0.09612310  0.09612310  0.00000000       0.002
   0.09544617  0.09544617  0.00000000       0.002
   0.09476925  0.09476925  0.00000000       0.002
   0.09409233  0.09409233  0.00000000       0.002
   0.09341540  0.09341540  0.00000000       0.002
   0.09273848  0.09273848  0.00000000       0.002
   0.09206156  0.09206156  0.00000000       0.002
   0.09138463  0.09138463  0.00000000       0.002
   0.09070771  0.09070771  0.00000000       0.002
   0.09003079  0.09003079  0.00000000       0.002
   0.08935386  0.08935386  0.00000000       0.002
   0.08867694  0.08867694  0.00000000       0.002
   0.08800002  0.08800002  0.00000000       0.002
   0.08732309  0.08732309  0.00000000       0.002
   0.08664617  0.08664617  0.00000000       0.002
   0.08596925  0.08596925  0.00000000       0.002
   0.08529232  0.08529232  0.00000000       0.002
   0.08461540  0.08461540  0.00000000       0.002
   0.08393848  0.08393848  0.00000000       0.002
   0.08326156  0.08326156  0.00000000       0.002
   0.08258463  0.08258463  0.00000000       0.002
   0.08190771  0.08190771  0.00000000       0.002
   0.08123079  0.08123079  0.00000000       0.002
   0.08055386  0.08055386  0.00000000       0.002
   0.07987694  0.07987694  0.00000000       0.002
   0.07920002  0.07920002  0.00000000       0.002
   0.07852309  0.07852309  0.00000000       0.002
   0.07784617  0.07784617  0.00000000       0.002
   0.07716925  0.07716925  0.00000000       0.002
   0.07649232  0.07649232  0.00000000       0.002
   0.07581540  0.07581540  0.00000000       0.002
   0.07513848  0.07513848  0.00000000       0.002
   0.07446155  0.07446155  0.00000000       0.002
   0.07378463  0.07378463  0.00000000       0.002
   0.07310771  0.07310771  0.00000000       0.002
   0.07243078  0.07243078  0.00000000       0.002
   0.07175386  0.07175386  0.00000000       0.002
   0.07107694  0.07107694  0.00000000       0.002
   0.07040001  0.07040001  0.00000000       0.002
   0.06972309  0.06972309  0.00000000       0.002
   0.06904617  0.06904617  0.00000000       0.002
   0.06836924  0.06836924  0.00000000       0.002
   0.06769232  0.06769232  0.00000000       0.002
   0.06701540  0.06701540  0.00000000       0.002
   0.06633847  0.06633847  0.00000000       0.002
   0.06566155  0.06566155  0.00000000       0.002
   0.06498463  0.06498463  0.00000000       0.002
   0.06430771  0.06430771  0.00000000       0.002
   0.06363078  0.06363078  0.00000000       0.002
   0.06295386  0.06295386  0.00000000       0.002
   0.06227694  0.06227694  0.00000000       0.002
   0.06160001  0.06160001  0.00000000       0.002
   0.06092309  0.06092309  0.00000000       0.002
   0.06024617  0.06024617  0.00000000       0.002
   0.05956924  0.05956924  0.00000000       0.002
   0.05889232  0.05889232  0.00000000       0.002
   0.05821540  0.05821540  0.00000000       0.002
   0.05753847  0.05753847  0.00000000       0.002
   0.05686155  0.05686155  0.00000000       0.002
   0.05618463  0.05618463  0.00000000       0.002
   0.05550770  0.05550770  0.00000000       0.002
   0.05483078  0.05483078  0.00000000       0.002
   0.05415386  0.05415386  0.00000000       0.002
   0.05347693  0.05347693  0.00000000       0.002
   0.05280001  0.05280001  0.00000000       0.002
   0.05212309  0.05212309  0.00000000       0.002
   0.05144616  0.05144616  0.00000000       0.002
   0.05076924  0.05076924  0.00000000       0.002
   0.05009232  0.05009232  0.00000000       0.002
   0.04941539  0.04941539  0.00000000       0.002
   0.04873847  0.04873847  0.00000000       0.002
   0.04806155  0.04806155  0.00000000       0.002
   0.04738462  0.04738462  0.00000000       0.002
   0.04670770  0.04670770  0.00000000       0.002
   0.04603078  0.04603078  0.00000000       0.002
   0.04535386  0.04535386  0.00000000       0.002
   0.04467693  0.04467693  0.00000000       0.002
   0.04400001  0.04400001  0.00000000       0.002
   0.04332309  0.04332309  0.00000000       0.002
   0.04264616  0.04264616  0.00000000       0.002
   0.04196924  0.04196924  0.00000000       0.002
   0.04129232  0.04129232  0.00000000       0.002
   0.04061539  0.04061539  0.00000000       0.002
   0.03993847  0.03993847  0.00000000       0.002
   0.03926155  0.03926155  0.00000000       0.002
   0.03858462  0.03858462  0.00000000       0.002
   0.03790770  0.03790770  0.00000000       0.002
   0.03723078  0.03723078  0.00000000       0.002
   0.03655385  0.03655385  0.00000000       0.002
   0.03587693  0.03587693  0.00000000       0.002
   0.03520001  0.03520001  0.00000000       0.002
   0.03452308  0.03452308  0.00000000       0.002
   0.03384616  0.03384616  0.00000000       0.002
   0.03316924  0.03316924  0.00000000       0.002
   0.03249231  0.03249231  0.00000000       0.002
   0.03181539  0.03181539  0.00000000       0.002
   0.03113847  0.03113847  0.00000000       0.002
   0.03046154  0.03046154  0.00000000       0.002
   0.02978462  0.02978462  0.00000000       0.002
   0.02910770  0.02910770  0.00000000       0.002
   0.02843077  0.02843077  0.00000000       0.002
   0.02775385  0.02775385  0.00000000       0.002
   0.02707693  0.02707693  0.00000000       0.002
   0.02640001  0.02640001  0.00000000       0.002
   0.02572308  0.02572308  0.00000000       0.002
   0.02504616  0.02504616  0.00000000       0.002
   0.02436924  0.02436924  0.00000000       0.002
   0.02369231  0.02369231  0.00000000       0.002
   0.02301539  0.02301539  0.00000000       0.002
   0.02233847  0.02233847  0.00000000       0.002
   0.02166154  0.02166154  0.00000000       0.002
   0.02098462  0.02098462  0.00000000       0.002
   0.02030770  0.02030770  0.00000000       0.002
   0.01963077  0.01963077  0.00000000       0.002
   0.01895385  0.01895385  0.00000000       0.002
   0.01827693  0.01827693  0.00000000       0.002
   0.01760000  0.01760000  0.00000000       0.002
   0.01692308  0.01692308  0.00000000       0.002
   0.01624616  0.01624616  0.00000000       0.002
   0.01556923  0.01556923  0.00000000       0.002
   0.01489231  0.01489231  0.00000000       0.002
   0.01421539  0.01421539  0.00000000       0.002
   0.01353846  0.01353846  0.00000000       0.002
   0.01286154  0.01286154  0.00000000       0.002
   0.01218462  0.01218462  0.00000000       0.002
   0.01150769  0.01150769  0.00000000       0.002
   0.01083077  0.01083077  0.00000000       0.002
   0.01015385  0.01015385  0.00000000       0.002
   0.00947692  0.00947692  0.00000000       0.002
   0.00880000  0.00880000  0.00000000       0.002
   0.00812308  0.00812308  0.00000000       0.002
   0.00744616  0.00744616  0.00000000       0.002
   0.00676923  0.00676923  0.00000000       0.002
   0.00609231  0.00609231  0.00000000       0.002
   0.00541539  0.00541539  0.00000000       0.002
   0.00473846  0.00473846  0.00000000       0.002
   0.00406154  0.00406154  0.00000000       0.002
   0.00338462  0.00338462  0.00000000       0.002
   0.00270769  0.00270769  0.00000000       0.002
   0.00203077  0.00203077  0.00000000       0.002
   0.00135385  0.00135385  0.00000000       0.002
   0.00067692  0.00067692  0.00000000       0.002
   0.00000000  0.00000000  0.00000000       0.002
   0.00000000  0.00000000  0.00000000       0.002
   0.00067692  0.00000000  0.00000000       0.002
   0.00135385  0.00000000  0.00000000       0.002
   0.00203077  0.00000000  0.00000000       0.002
   0.00270769  0.00000000  0.00000000       0.002
   0.00338462  0.00000000  0.00000000       0.002
   0.00406154  0.00000000  0.00000000       0.002
   0.00473846  0.00000000  0.00000000       0.002
   0.00541539  0.00000000  0.00000000       0.002
   0.00609231  0.00000000  0.00000000       0.002
   0.00676923  0.00000000  0.00000000       0.002
   0.00744616  0.00000000  0.00000000       0.002
   0.00812308  0.00000000  0.00000000       0.002
   0.00880000  0.00000000  0.00000000       0.002
   0.00947692  0.00000000  0.00000000       0.002
   0.01015385  0.00000000  0.00000000       0.002
   0.01083077  0.00000000  0.00000000       0.002
   0.01150769  0.00000000  0.00000000       0.002
   0.01218462  0.00000000  0.00000000       0.002
   0.01286154  0.00000000  0.00000000       0.002
   0.01353846  0.00000000  0.00000000       0.002
   0.01421539  0.00000000  0.00000000       0.002
   0.01489231  0.00000000  0.00000000       0.002
   0.01556923  0.00000000  0.00000000       0.002
   0.01624616  0.00000000  0.00000000       0.002
   0.01692308  0.00000000  0.00000000       0.002
   0.01760000  0.00000000  0.00000000       0.002
   0.01827693  0.00000000  0.00000000       0.002
   0.01895385  0.00000000  0.00000000       0.002
   0.01963077  0.00000000  0.00000000       0.002
   0.02030770  0.00000000  0.00000000       0.002
   0.02098462  0.00000000  0.00000000       0.002
   0.02166154  0.00000000  0.00000000       0.002
   0.02233847  0.00000000  0.00000000       0.002
   0.02301539  0.00000000  0.00000000       0.002
   0.02369231  0.00000000  0.00000000       0.002
   0.02436924  0.00000000  0.00000000       0.002
   0.02504616  0.00000000  0.00000000       0.002
   0.02572308  0.00000000  0.00000000       0.002
   0.02640001  0.00000000  0.00000000       0.002
   0.02707693  0.00000000  0.00000000       0.002
   0.02775385  0.00000000  0.00000000       0.002
   0.02843077  0.00000000  0.00000000       0.002
   0.02910770  0.00000000  0.00000000       0.002
   0.02978462  0.00000000  0.00000000       0.002
   0.03046154  0.00000000  0.00000000       0.002
   0.03113847  0.00000000  0.00000000       0.002
   0.03181539  0.00000000  0.00000000       0.002
   0.03249231  0.00000000  0.00000000       0.002
   0.03316924  0.00000000  0.00000000       0.002
   0.03384616  0.00000000  0.00000000       0.002
   0.03452308  0.00000000  0.00000000       0.002
   0.03520001  0.00000000  0.00000000       0.002
   0.03587693  0.00000000  0.00000000       0.002
   0.03655385  0.00000000  0.00000000       0.002
   0.03723078  0.00000000  0.00000000       0.002
   0.03790770  0.00000000  0.00000000       0.002
   0.03858462  0.00000000  0.00000000       0.002
   0.03926155  0.00000000  0.00000000       0.002
   0.03993847  0.00000000  0.00000000       0.002
   0.04061539  0.00000000  0.00000000       0.002
   0.04129232  0.00000000  0.00000000       0.002
   0.04196924  0.00000000  0.00000000       0.002
   0.04264616  0.00000000  0.00000000       0.002
   0.04332309  0.00000000  0.00000000       0.002
   0.04400001  0.00000000  0.00000000       0.002
   0.04467693  0.00000000  0.00000000       0.002
   0.04535386  0.00000000  0.00000000       0.002
   0.04603078  0.00000000  0.00000000       0.002
   0.04670770  0.00000000  0.00000000       0.002
   0.04738462  0.00000000  0.00000000       0.002
   0.04806155  0.00000000  0.00000000       0.002
   0.04873847  0.00000000  0.00000000       0.002
   0.04941539  0.00000000  0.00000000       0.002
   0.05009232  0.00000000  0.00000000       0.002
   0.05076924  0.00000000  0.00000000       0.002
   0.05144616  0.00000000  0.00000000       0.002
   0.05212309  0.00000000  0.00000000       0.002
   0.05280001  0.00000000  0.00000000       0.002
   0.05347693  0.00000000  0.00000000       0.002
   0.05415386  0.00000000  0.00000000       0.002
   0.05483078  0.00000000  0.00000000       0.002
   0.05550770  0.00000000  0.00000000       0.002
   0.05618463  0.00000000  0.00000000       0.002
   0.05686155  0.00000000  0.00000000       0.002
   0.05753847  0.00000000  0.00000000       0.002
   0.05821540  0.00000000  0.00000000       0.002
   0.05889232  0.00000000  0.00000000       0.002
   0.05956924  0.00000000  0.00000000       0.002
   0.06024617  0.00000000  0.00000000       0.002
   0.06092309  0.00000000  0.00000000       0.002
   0.06160001  0.00000000  0.00000000       0.002
   0.06227694  0.00000000  0.00000000       0.002
   0.06295386  0.00000000  0.00000000       0.002
   0.06363078  0.00000000  0.00000000       0.002
   0.06430771  0.00000000  0.00000000       0.002
   0.06498463  0.00000000  0.00000000       0.002
   0.06566155  0.00000000  0.00000000       0.002
   0.06633847  0.00000000  0.00000000       0.002
   0.06701540  0.00000000  0.00000000       0.002
   0.06769232  0.00000000  0.00000000       0.002
   0.06836924  0.00000000  0.00000000       0.002
   0.06904617  0.00000000  0.00000000       0.002
   0.06972309  0.00000000  0.00000000       0.002
   0.07040001  0.00000000  0.00000000       0.002
   0.07107694  0.00000000  0.00000000       0.002
   0.07175386  0.00000000  0.00000000       0.002
   0.07243078  0.00000000  0.00000000       0.002
   0.07310771  0.00000000  0.00000000       0.002
   0.07378463  0.00000000  0.00000000       0.002
   0.07446155  0.00000000  0.00000000       0.002
   0.07513848  0.00000000  0.00000000       0.002
   0.07581540  0.00000000  0.00000000       0.002
   0.07649232  0.00000000  0.00000000       0.002
   0.07716925  0.00000000  0.00000000       0.002
   0.07784617  0.00000000  0.00000000       0.002
   0.07852309  0.00000000  0.00000000       0.002
   0.07920002  0.00000000  0.00000000       0.002
   0.07987694  0.00000000  0.00000000       0.002
   0.08055386  0.00000000  0.00000000       0.002
   0.08123079  0.00000000  0.00000000       0.002
   0.08190771  0.00000000  0.00000000       0.002
   0.08258463  0.00000000  0.00000000       0.002
   0.08326156  0.00000000  0.00000000       0.002
   0.08393848  0.00000000  0.00000000       0.002
   0.08461540  0.00000000  0.00000000       0.002
   0.08529232  0.00000000  0.00000000       0.002
   0.08596925  0.00000000  0.00000000       0.002
   0.08664617  0.00000000  0.00000000       0.002
   0.08732309  0.00000000  0.00000000       0.002
   0.08800002  0.00000000  0.00000000       0.002
   0.08867694  0.00000000  0.00000000       0.002
   0.08935386  0.00000000  0.00000000       0.002
   0.09003079  0.00000000  0.00000000       0.002
   0.09070771  0.00000000  0.00000000       0.002
   0.09138463  0.00000000  0.00000000       0.002
   0.09206156  0.00000000  0.00000000       0.002
   0.09273848  0.00000000  0.00000000       0.002
   0.09341540  0.00000000  0.00000000       0.002
   0.09409233  0.00000000  0.00000000       0.002
   0.09476925  0.00000000  0.00000000       0.002
   0.09544617  0.00000000  0.00000000       0.002
   0.09612310  0.00000000  0.00000000       0.002
   0.09680002  0.00000000  0.00000000       0.002
   0.09747694  0.00000000  0.00000000       0.002
   0.09815387  0.00000000  0.00000000       0.002
   0.09883079  0.00000000  0.00000000       0.002
   0.09950771  0.00000000  0.00000000       0.002
   0.10018464  0.00000000  0.00000000       0.002
   0.10086156  0.00000000  0.00000000       0.002
   0.10153848  0.00000000  0.00000000       0.002
   0.10221541  0.00000000  0.00000000       0.002
   0.10289233  0.00000000  0.00000000       0.002
   0.10356925  0.00000000  0.00000000       0.002
   0.10424617  0.00000000  0.00000000       0.002
   0.10492310  0.00000000  0.00000000       0.002
   0.10560002  0.00000000  0.00000000       0.002
   0.10627694  0.00000000  0.00000000       0.002
   0.10695387  0.00000000  0.00000000       0.002
   0.10763079  0.00000000  0.00000000       0.002
   0.10830771  0.00000000  0.00000000       0.002
   0.10898464  0.00000000  0.00000000       0.002
   0.10966156  0.00000000  0.00000000       0.002
   0.11033848  0.00000000  0.00000000       0.002
   0.11101541  0.00000000  0.00000000       0.002
   0.11169233  0.00000000  0.00000000       0.002
   0.11236925  0.00000000  0.00000000       0.002
   0.11304618  0.00000000  0.00000000       0.002
   0.11372310  0.00000000  0.00000000       0.002
   0.11440002  0.00000000  0.00000000       0.002
   0.11507695  0.00000000  0.00000000       0.002
   0.11575387  0.00000000  0.00000000       0.002
   0.11643079  0.00000000  0.00000000       0.002
   0.11710772  0.00000000  0.00000000       0.002
   0.11778464  0.00000000  0.00000000       0.002
   0.11846156  0.00000000  0.00000000       0.002
   0.11913849  0.00000000  0.00000000       0.002
   0.11981541  0.00000000  0.00000000       0.002
   0.12049233  0.00000000  0.00000000       0.002
   0.12116926  0.00000000  0.00000000       0.002
   0.12184618  0.00000000  0.00000000       0.002
   0.12252310  0.00000000  0.00000000       0.002
   0.12320002  0.00000000  0.00000000       0.002
   0.12387695  0.00000000  0.00000000       0.002
   0.12455387  0.00000000  0.00000000       0.002
   0.12523079  0.00000000  0.00000000       0.002
   0.12590772  0.00000000  0.00000000       0.002
   0.12658464  0.00000000  0.00000000       0.002
   0.12726156  0.00000000  0.00000000       0.002
   0.12793849  0.00000000  0.00000000       0.002
   0.12861541  0.00000000  0.00000000       0.002
   0.12929233  0.00000000  0.00000000       0.002
   0.12996926  0.00000000  0.00000000       0.002
   0.13064618  0.00000000  0.00000000       0.002
   0.13132310  0.00000000  0.00000000       0.002
   0.13200003  0.00000000  0.00000000       0.002
   0.13267695  0.00000000  0.00000000       0.002
   0.13335387  0.00000000  0.00000000       0.002
   0.13403080  0.00000000  0.00000000       0.002
   0.13470772  0.00000000  0.00000000       0.002
   0.13470772  0.00000000  0.00000000       0.002
   0.13470772  0.00067692  0.00000000       0.002
   0.13470772  0.00135385  0.00000000       0.002
   0.13470772  0.00203077  0.00000000       0.002
   0.13470772  0.00270769  0.00000000       0.002
   0.13470772  0.00338462  0.00000000       0.002
   0.13470772  0.00406154  0.00000000       0.002
   0.13470772  0.00473846  0.00000000       0.002
   0.13470772  0.00541539  0.00000000       0.002
   0.13470772  0.00609231  0.00000000       0.002
   0.13470772  0.00676923  0.00000000       0.002
   0.13470772  0.00744616  0.00000000       0.002
   0.13470772  0.00812308  0.00000000       0.002
   0.13470772  0.00880000  0.00000000       0.002
   0.13470772  0.00947692  0.00000000       0.002
   0.13470772  0.01015385  0.00000000       0.002
   0.13470772  0.01083077  0.00000000       0.002
   0.13470772  0.01150769  0.00000000       0.002
   0.13470772  0.01218462  0.00000000       0.002
   0.13470772  0.01286154  0.00000000       0.002
   0.13470772  0.01353846  0.00000000       0.002
   0.13470772  0.01421539  0.00000000       0.002
   0.13470772  0.01489231  0.00000000       0.002
   0.13470772  0.01556923  0.00000000       0.002
   0.13470772  0.01624616  0.00000000       0.002
   0.13470772  0.01692308  0.00000000       0.002
   0.13470772  0.01760000  0.00000000       0.002
   0.13470772  0.01827693  0.00000000       0.002
   0.13470772  0.01895385  0.00000000       0.002
   0.13470772  0.01963077  0.00000000       0.002
   0.13470772  0.02030770  0.00000000       0.002
   0.13470772  0.02098462  0.00000000       0.002
   0.13470772  0.02166154  0.00000000       0.002
   0.13470772  0.02233847  0.00000000       0.002
   0.13470772  0.02301539  0.00000000       0.002
   0.13470772  0.02369231  0.00000000       0.002
   0.13470772  0.02436924  0.00000000       0.002
   0.13470772  0.02504616  0.00000000       0.002
   0.13470772  0.02572308  0.00000000       0.002
   0.13470772  0.02640001  0.00000000       0.002
   0.13470772  0.02707693  0.00000000       0.002
   0.13470772  0.02775385  0.00000000       0.002
   0.13470772  0.02843077  0.00000000       0.002
   0.13470772  0.02910770  0.00000000       0.002
   0.13470772  0.02978462  0.00000000       0.002
   0.13470772  0.03046154  0.00000000       0.002
   0.13470772  0.03113847  0.00000000       0.002
   0.13470772  0.03181539  0.00000000       0.002
   0.13470772  0.03249231  0.00000000       0.002
   0.13470772  0.03316924  0.00000000       0.002
   0.13470772  0.03384616  0.00000000       0.002
   0.13470772  0.03452308  0.00000000       0.002
   0.13470772  0.03520001  0.00000000       0.002
   0.13470772  0.03587693  0.00000000       0.002
   0.13470772  0.03655385  0.00000000       0.002
   0.13470772  0.03723078  0.00000000       0.002
   0.13470772  0.03790770  0.00000000       0.002
   0.13470772  0.03858462  0.00000000       0.002
   0.13470772  0.03926155  0.00000000       0.002
   0.13470772  0.03993847  0.00000000       0.002
   0.13470772  0.04061539  0.00000000       0.002
   0.13470772  0.04129232  0.00000000       0.002
   0.13470772  0.04196924  0.00000000       0.002
   0.13470772  0.04264616  0.00000000       0.002
   0.13470772  0.04332309  0.00000000       0.002
   0.13470772  0.04400001  0.00000000       0.002
   0.13470772  0.04467693  0.00000000       0.002
   0.13470772  0.04535386  0.00000000       0.002
   0.13470772  0.04603078  0.00000000       0.002
   0.13470772  0.04670770  0.00000000       0.002
   0.13470772  0.04738462  0.00000000       0.002
   0.13470772  0.04806155  0.00000000       0.002
   0.13470772  0.04873847  0.00000000       0.002
   0.13470772  0.04941539  0.00000000       0.002
   0.13470772  0.05009232  0.00000000       0.002
   0.13470772  0.05076924  0.00000000       0.002
   0.13470772  0.05144616  0.00000000       0.002
   0.13470772  0.05212309  0.00000000       0.002
   0.13470772  0.05280001  0.00000000       0.002
   0.13470772  0.05347693  0.00000000       0.002
   0.13470772  0.05415386  0.00000000       0.002
   0.13470772  0.05483078  0.00000000       0.002
   0.13470772  0.05550770  0.00000000       0.002
   0.13470772  0.05618463  0.00000000       0.002
   0.13470772  0.05686155  0.00000000       0.002
   0.13470772  0.05753847  0.00000000       0.002
   0.13470772  0.05821540  0.00000000       0.002
   0.13470772  0.05889232  0.00000000       0.002
   0.13470772  0.05956924  0.00000000       0.002
   0.13470772  0.06024617  0.00000000       0.002
   0.13470772  0.06092309  0.00000000       0.002
   0.13470772  0.06160001  0.00000000       0.002
   0.13470772  0.06227694  0.00000000       0.002
   0.13470772  0.06295386  0.00000000       0.002
   0.13470772  0.06363078  0.00000000       0.002
   0.13470772  0.06430771  0.00000000       0.002
   0.13470772  0.06498463  0.00000000       0.002
   0.13470772  0.06566155  0.00000000       0.002
   0.13470772  0.06633847  0.00000000       0.002
   0.13470772  0.06701540  0.00000000       0.002
   0.13470772  0.06769232  0.00000000       0.002
   0.13470772  0.06836924  0.00000000       0.002
   0.13470772  0.06904617  0.00000000       0.002
   0.13470772  0.06972309  0.00000000       0.002
   0.13470772  0.07040001  0.00000000       0.002
   0.13470772  0.07107694  0.00000000       0.002
   0.13470772  0.07175386  0.00000000       0.002
   0.13470772  0.07243078  0.00000000       0.002
   0.13470772  0.07310771  0.00000000       0.002
   0.13470772  0.07378463  0.00000000       0.002
   0.13470772  0.07446155  0.00000000       0.002
   0.13470772  0.07513848  0.00000000       0.002
   0.13470772  0.07581540  0.00000000       0.002
   0.13470772  0.07649232  0.00000000       0.002
   0.13470772  0.07716925  0.00000000       0.002
   0.13470772  0.07784617  0.00000000       0.002
   0.13470772  0.07852309  0.00000000       0.002
   0.13470772  0.07920002  0.00000000       0.002
   0.13470772  0.07987694  0.00000000       0.002
   0.13470772  0.08055386  0.00000000       0.002
   0.13470772  0.08123079  0.00000000       0.002
   0.13470772  0.08190771  0.00000000       0.002
   0.13470772  0.08258463  0.00000000       0.002
   0.13470772  0.08326156  0.00000000       0.002
   0.13470772  0.08393848  0.00000000       0.002
   0.13470772  0.08461540  0.00000000       0.002
   0.13470772  0.08529232  0.00000000       0.002
   0.13470772  0.08596925  0.00000000       0.002
   0.13470772  0.08664617  0.00000000       0.002
   0.13470772  0.08732309  0.00000000       0.002
   0.13470772  0.08800002  0.00000000       0.002
   0.13470772  0.08867694  0.00000000       0.002
   0.13470772  0.08935386  0.00000000       0.002
   0.13470772  0.09003079  0.00000000       0.002
   0.13470772  0.09070771  0.00000000       0.002
   0.13470772  0.09138463  0.00000000       0.002
   0.13470772  0.09206156  0.00000000       0.002
   0.13470772  0.09273848  0.00000000       0.002
   0.13470772  0.09341540  0.00000000       0.002
   0.13470772  0.09409233  0.00000000       0.002
   0.13470772  0.09476925  0.00000000       0.002
   0.13470772  0.09544617  0.00000000       0.002
   0.13470772  0.09612310  0.00000000       0.002
   0.13470772  0.09680002  0.00000000       0.002
   0.13470772  0.09747694  0.00000000       0.002
   0.13470772  0.09815387  0.00000000       0.002
   0.13470772  0.09883079  0.00000000       0.002
   0.13470772  0.09950771  0.00000000       0.002
   0.13470772  0.10018464  0.00000000       0.002
   0.13470772  0.10086156  0.00000000       0.002
   0.13470772  0.10153848  0.00000000       0.002
   0.13470772  0.10221541  0.00000000       0.002
   0.13470772  0.10289233  0.00000000       0.002
   0.13470772  0.10356925  0.00000000       0.002
   0.13470772  0.10424617  0.00000000       0.002
   0.13470772  0.10492310  0.00000000       0.002
   0.13470772  0.10560002  0.00000000       0.002
   0.13470772  0.10627694  0.00000000       0.002
   0.13470772  0.10695387  0.00000000       0.002
   0.13470772  0.10763079  0.00000000       0.002
   0.13470772  0.10830771  0.00000000       0.002
   0.13470772  0.10898464  0.00000000       0.002
   0.13470772  0.10966156  0.00000000       0.002
   0.13470772  0.11033848  0.00000000       0.002
   0.13470772  0.11101541  0.00000000       0.002
   0.13470772  0.11169233  0.00000000       0.002
   0.13470772  0.11236925  0.00000000       0.002
   0.13470772  0.11304618  0.00000000       0.002
   0.13470772  0.11372310  0.00000000       0.002
   0.13470772  0.11440002  0.00000000       0.002
   0.13470772  0.11507695  0.00000000       0.002
   0.13470772  0.11575387  0.00000000       0.002
   0.13470772  0.11643079  0.00000000       0.002
   0.13470772  0.11710772  0.00000000       0.002
   0.13470772  0.11778464  0.00000000       0.002
   0.13470772  0.11846156  0.00000000       0.002
   0.13470772  0.11913849  0.00000000       0.002
   0.13470772  0.11981541  0.00000000       0.002
   0.13470772  0.12049233  0.00000000       0.002
   0.13470772  0.12116926  0.00000000       0.002
   0.13470772  0.12184618  0.00000000       0.002
   0.13470772  0.12252310  0.00000000       0.002
   0.13470772  0.12320002  0.00000000       0.002
   0.13470772  0.12387695  0.00000000       0.002
   0.13470772  0.12455387  0.00000000       0.002
   0.13470772  0.12523079  0.00000000       0.002
   0.13470772  0.12590772  0.00000000       0.002
   0.13470772  0.12658464  0.00000000       0.002
   0.13470772  0.12726156  0.00000000       0.002
   0.13470772  0.12793849  0.00000000       0.002
   0.13470772  0.12861541  0.00000000       0.002
   0.13470772  0.12929233  0.00000000       0.002
   0.13470772  0.12996926  0.00000000       0.002
   0.13470772  0.13064618  0.00000000       0.002
   0.13470772  0.13132310  0.00000000       0.002
   0.13470772  0.13200003  0.00000000       0.002
   0.13470772  0.13267695  0.00000000       0.002
   0.13470772  0.13335387  0.00000000       0.002
   0.13470772  0.13403080  0.00000000       0.002
   0.13470772  0.13470772  0.00000000       0.002
 
 k-points in reciprocal lattice and weights: K-Path Generated by VASPKIT.            
   0.50000000  0.50000000  0.00000000       0.002
   0.49748744  0.49748744  0.00000000       0.002
   0.49497487  0.49497487  0.00000000       0.002
   0.49246231  0.49246231  0.00000000       0.002
   0.48994975  0.48994975  0.00000000       0.002
   0.48743719  0.48743719  0.00000000       0.002
   0.48492462  0.48492462  0.00000000       0.002
   0.48241206  0.48241206  0.00000000       0.002
   0.47989950  0.47989950  0.00000000       0.002
   0.47738693  0.47738693  0.00000000       0.002
   0.47487437  0.47487437  0.00000000       0.002
   0.47236181  0.47236181  0.00000000       0.002
   0.46984925  0.46984925  0.00000000       0.002
   0.46733668  0.46733668  0.00000000       0.002
   0.46482412  0.46482412  0.00000000       0.002
   0.46231156  0.46231156  0.00000000       0.002
   0.45979899  0.45979899  0.00000000       0.002
   0.45728643  0.45728643  0.00000000       0.002
   0.45477387  0.45477387  0.00000000       0.002
   0.45226131  0.45226131  0.00000000       0.002
   0.44974874  0.44974874  0.00000000       0.002
   0.44723618  0.44723618  0.00000000       0.002
   0.44472362  0.44472362  0.00000000       0.002
   0.44221106  0.44221106  0.00000000       0.002
   0.43969849  0.43969849  0.00000000       0.002
   0.43718593  0.43718593  0.00000000       0.002
   0.43467337  0.43467337  0.00000000       0.002
   0.43216080  0.43216080  0.00000000       0.002
   0.42964824  0.42964824  0.00000000       0.002
   0.42713568  0.42713568  0.00000000       0.002
   0.42462312  0.42462312  0.00000000       0.002
   0.42211055  0.42211055  0.00000000       0.002
   0.41959799  0.41959799  0.00000000       0.002
   0.41708543  0.41708543  0.00000000       0.002
   0.41457286  0.41457286  0.00000000       0.002
   0.41206030  0.41206030  0.00000000       0.002
   0.40954774  0.40954774  0.00000000       0.002
   0.40703518  0.40703518  0.00000000       0.002
   0.40452261  0.40452261  0.00000000       0.002
   0.40201005  0.40201005  0.00000000       0.002
   0.39949749  0.39949749  0.00000000       0.002
   0.39698492  0.39698492  0.00000000       0.002
   0.39447236  0.39447236  0.00000000       0.002
   0.39195980  0.39195980  0.00000000       0.002
   0.38944724  0.38944724  0.00000000       0.002
   0.38693467  0.38693467  0.00000000       0.002
   0.38442211  0.38442211  0.00000000       0.002
   0.38190955  0.38190955  0.00000000       0.002
   0.37939698  0.37939698  0.00000000       0.002
   0.37688442  0.37688442  0.00000000       0.002
   0.37437186  0.37437186  0.00000000       0.002
   0.37185930  0.37185930  0.00000000       0.002
   0.36934673  0.36934673  0.00000000       0.002
   0.36683417  0.36683417  0.00000000       0.002
   0.36432161  0.36432161  0.00000000       0.002
   0.36180905  0.36180905  0.00000000       0.002
   0.35929648  0.35929648  0.00000000       0.002
   0.35678392  0.35678392  0.00000000       0.002
   0.35427136  0.35427136  0.00000000       0.002
   0.35175879  0.35175879  0.00000000       0.002
   0.34924623  0.34924623  0.00000000       0.002
   0.34673367  0.34673367  0.00000000       0.002
   0.34422111  0.34422111  0.00000000       0.002
   0.34170854  0.34170854  0.00000000       0.002
   0.33919598  0.33919598  0.00000000       0.002
   0.33668342  0.33668342  0.00000000       0.002
   0.33417085  0.33417085  0.00000000       0.002
   0.33165829  0.33165829  0.00000000       0.002
   0.32914573  0.32914573  0.00000000       0.002
   0.32663317  0.32663317  0.00000000       0.002
   0.32412060  0.32412060  0.00000000       0.002
   0.32160804  0.32160804  0.00000000       0.002
   0.31909548  0.31909548  0.00000000       0.002
   0.31658291  0.31658291  0.00000000       0.002
   0.31407035  0.31407035  0.00000000       0.002
   0.31155779  0.31155779  0.00000000       0.002
   0.30904523  0.30904523  0.00000000       0.002
   0.30653266  0.30653266  0.00000000       0.002
   0.30402010  0.30402010  0.00000000       0.002
   0.30150754  0.30150754  0.00000000       0.002
   0.29899497  0.29899497  0.00000000       0.002
   0.29648241  0.29648241  0.00000000       0.002
   0.29396985  0.29396985  0.00000000       0.002
   0.29145729  0.29145729  0.00000000       0.002
   0.28894472  0.28894472  0.00000000       0.002
   0.28643216  0.28643216  0.00000000       0.002
   0.28391960  0.28391960  0.00000000       0.002
   0.28140704  0.28140704  0.00000000       0.002
   0.27889447  0.27889447  0.00000000       0.002
   0.27638191  0.27638191  0.00000000       0.002
   0.27386935  0.27386935  0.00000000       0.002
   0.27135678  0.27135678  0.00000000       0.002
   0.26884422  0.26884422  0.00000000       0.002
   0.26633166  0.26633166  0.00000000       0.002
   0.26381910  0.26381910  0.00000000       0.002
   0.26130653  0.26130653  0.00000000       0.002
   0.25879397  0.25879397  0.00000000       0.002
   0.25628141  0.25628141  0.00000000       0.002
   0.25376884  0.25376884  0.00000000       0.002
   0.25125628  0.25125628  0.00000000       0.002
   0.24874372  0.24874372  0.00000000       0.002
   0.24623116  0.24623116  0.00000000       0.002
   0.24371859  0.24371859  0.00000000       0.002
   0.24120603  0.24120603  0.00000000       0.002
   0.23869347  0.23869347  0.00000000       0.002
   0.23618090  0.23618090  0.00000000       0.002
   0.23366834  0.23366834  0.00000000       0.002
   0.23115578  0.23115578  0.00000000       0.002
   0.22864322  0.22864322  0.00000000       0.002
   0.22613065  0.22613065  0.00000000       0.002
   0.22361809  0.22361809  0.00000000       0.002
   0.22110553  0.22110553  0.00000000       0.002
   0.21859296  0.21859296  0.00000000       0.002
   0.21608040  0.21608040  0.00000000       0.002
   0.21356784  0.21356784  0.00000000       0.002
   0.21105528  0.21105528  0.00000000       0.002
   0.20854271  0.20854271  0.00000000       0.002
   0.20603015  0.20603015  0.00000000       0.002
   0.20351759  0.20351759  0.00000000       0.002
   0.20100503  0.20100503  0.00000000       0.002
   0.19849246  0.19849246  0.00000000       0.002
   0.19597990  0.19597990  0.00000000       0.002
   0.19346734  0.19346734  0.00000000       0.002
   0.19095477  0.19095477  0.00000000       0.002
   0.18844221  0.18844221  0.00000000       0.002
   0.18592965  0.18592965  0.00000000       0.002
   0.18341709  0.18341709  0.00000000       0.002
   0.18090452  0.18090452  0.00000000       0.002
   0.17839196  0.17839196  0.00000000       0.002
   0.17587940  0.17587940  0.00000000       0.002
   0.17336683  0.17336683  0.00000000       0.002
   0.17085427  0.17085427  0.00000000       0.002
   0.16834171  0.16834171  0.00000000       0.002
   0.16582915  0.16582915  0.00000000       0.002
   0.16331658  0.16331658  0.00000000       0.002
   0.16080402  0.16080402  0.00000000       0.002
   0.15829146  0.15829146  0.00000000       0.002
   0.15577889  0.15577889  0.00000000       0.002
   0.15326633  0.15326633  0.00000000       0.002
   0.15075377  0.15075377  0.00000000       0.002
   0.14824121  0.14824121  0.00000000       0.002
   0.14572864  0.14572864  0.00000000       0.002
   0.14321608  0.14321608  0.00000000       0.002
   0.14070352  0.14070352  0.00000000       0.002
   0.13819095  0.13819095  0.00000000       0.002
   0.13567839  0.13567839  0.00000000       0.002
   0.13316583  0.13316583  0.00000000       0.002
   0.13065327  0.13065327  0.00000000       0.002
   0.12814070  0.12814070  0.00000000       0.002
   0.12562814  0.12562814  0.00000000       0.002
   0.12311558  0.12311558  0.00000000       0.002
   0.12060302  0.12060302  0.00000000       0.002
   0.11809045  0.11809045  0.00000000       0.002
   0.11557789  0.11557789  0.00000000       0.002
   0.11306533  0.11306533  0.00000000       0.002
   0.11055276  0.11055276  0.00000000       0.002
   0.10804020  0.10804020  0.00000000       0.002
   0.10552764  0.10552764  0.00000000       0.002
   0.10301508  0.10301508  0.00000000       0.002
   0.10050251  0.10050251  0.00000000       0.002
   0.09798995  0.09798995  0.00000000       0.002
   0.09547739  0.09547739  0.00000000       0.002
   0.09296482  0.09296482  0.00000000       0.002
   0.09045226  0.09045226  0.00000000       0.002
   0.08793970  0.08793970  0.00000000       0.002
   0.08542714  0.08542714  0.00000000       0.002
   0.08291457  0.08291457  0.00000000       0.002
   0.08040201  0.08040201  0.00000000       0.002
   0.07788945  0.07788945  0.00000000       0.002
   0.07537688  0.07537688  0.00000000       0.002
   0.07286432  0.07286432  0.00000000       0.002
   0.07035176  0.07035176  0.00000000       0.002
   0.06783920  0.06783920  0.00000000       0.002
   0.06532663  0.06532663  0.00000000       0.002
   0.06281407  0.06281407  0.00000000       0.002
   0.06030151  0.06030151  0.00000000       0.002
   0.05778894  0.05778894  0.00000000       0.002
   0.05527638  0.05527638  0.00000000       0.002
   0.05276382  0.05276382  0.00000000       0.002
   0.05025126  0.05025126  0.00000000       0.002
   0.04773869  0.04773869  0.00000000       0.002
   0.04522613  0.04522613  0.00000000       0.002
   0.04271357  0.04271357  0.00000000       0.002
   0.04020101  0.04020101  0.00000000       0.002
   0.03768844  0.03768844  0.00000000       0.002
   0.03517588  0.03517588  0.00000000       0.002
   0.03266332  0.03266332  0.00000000       0.002
   0.03015075  0.03015075  0.00000000       0.002
   0.02763819  0.02763819  0.00000000       0.002
   0.02512563  0.02512563  0.00000000       0.002
   0.02261307  0.02261307  0.00000000       0.002
   0.02010050  0.02010050  0.00000000       0.002
   0.01758794  0.01758794  0.00000000       0.002
   0.01507538  0.01507538  0.00000000       0.002
   0.01256281  0.01256281  0.00000000       0.002
   0.01005025  0.01005025  0.00000000       0.002
   0.00753769  0.00753769  0.00000000       0.002
   0.00502513  0.00502513  0.00000000       0.002
   0.00251256  0.00251256  0.00000000       0.002
   0.00000000  0.00000000  0.00000000       0.002
   0.00000000  0.00000000  0.00000000       0.002
   0.00251256  0.00000000  0.00000000       0.002
   0.00502513  0.00000000  0.00000000       0.002
   0.00753769  0.00000000  0.00000000       0.002
   0.01005025  0.00000000  0.00000000       0.002
   0.01256281  0.00000000  0.00000000       0.002
   0.01507538  0.00000000  0.00000000       0.002
   0.01758794  0.00000000  0.00000000       0.002
   0.02010050  0.00000000  0.00000000       0.002
   0.02261307  0.00000000  0.00000000       0.002
   0.02512563  0.00000000  0.00000000       0.002
   0.02763819  0.00000000  0.00000000       0.002
   0.03015075  0.00000000  0.00000000       0.002
   0.03266332  0.00000000  0.00000000       0.002
   0.03517588  0.00000000  0.00000000       0.002
   0.03768844  0.00000000  0.00000000       0.002
   0.04020101  0.00000000  0.00000000       0.002
   0.04271357  0.00000000  0.00000000       0.002
   0.04522613  0.00000000  0.00000000       0.002
   0.04773869  0.00000000  0.00000000       0.002
   0.05025126  0.00000000  0.00000000       0.002
   0.05276382  0.00000000  0.00000000       0.002
   0.05527638  0.00000000  0.00000000       0.002
   0.05778894  0.00000000  0.00000000       0.002
   0.06030151  0.00000000  0.00000000       0.002
   0.06281407  0.00000000  0.00000000       0.002
   0.06532663  0.00000000  0.00000000       0.002
   0.06783920  0.00000000  0.00000000       0.002
   0.07035176  0.00000000  0.00000000       0.002
   0.07286432  0.00000000  0.00000000       0.002
   0.07537688  0.00000000  0.00000000       0.002
   0.07788945  0.00000000  0.00000000       0.002
   0.08040201  0.00000000  0.00000000       0.002
   0.08291457  0.00000000  0.00000000       0.002
   0.08542714  0.00000000  0.00000000       0.002
   0.08793970  0.00000000  0.00000000       0.002
   0.09045226  0.00000000  0.00000000       0.002
   0.09296482  0.00000000  0.00000000       0.002
   0.09547739  0.00000000  0.00000000       0.002
   0.09798995  0.00000000  0.00000000       0.002
   0.10050251  0.00000000  0.00000000       0.002
   0.10301508  0.00000000  0.00000000       0.002
   0.10552764  0.00000000  0.00000000       0.002
   0.10804020  0.00000000  0.00000000       0.002
   0.11055276  0.00000000  0.00000000       0.002
   0.11306533  0.00000000  0.00000000       0.002
   0.11557789  0.00000000  0.00000000       0.002
   0.11809045  0.00000000  0.00000000       0.002
   0.12060302  0.00000000  0.00000000       0.002
   0.12311558  0.00000000  0.00000000       0.002
   0.12562814  0.00000000  0.00000000       0.002
   0.12814070  0.00000000  0.00000000       0.002
   0.13065327  0.00000000  0.00000000       0.002
   0.13316583  0.00000000  0.00000000       0.002
   0.13567839  0.00000000  0.00000000       0.002
   0.13819095  0.00000000  0.00000000       0.002
   0.14070352  0.00000000  0.00000000       0.002
   0.14321608  0.00000000  0.00000000       0.002
   0.14572864  0.00000000  0.00000000       0.002
   0.14824121  0.00000000  0.00000000       0.002
   0.15075377  0.00000000  0.00000000       0.002
   0.15326633  0.00000000  0.00000000       0.002
   0.15577889  0.00000000  0.00000000       0.002
   0.15829146  0.00000000  0.00000000       0.002
   0.16080402  0.00000000  0.00000000       0.002
   0.16331658  0.00000000  0.00000000       0.002
   0.16582915  0.00000000  0.00000000       0.002
   0.16834171  0.00000000  0.00000000       0.002
   0.17085427  0.00000000  0.00000000       0.002
   0.17336683  0.00000000  0.00000000       0.002
   0.17587940  0.00000000  0.00000000       0.002
   0.17839196  0.00000000  0.00000000       0.002
   0.18090452  0.00000000  0.00000000       0.002
   0.18341709  0.00000000  0.00000000       0.002
   0.18592965  0.00000000  0.00000000       0.002
   0.18844221  0.00000000  0.00000000       0.002
   0.19095477  0.00000000  0.00000000       0.002
   0.19346734  0.00000000  0.00000000       0.002
   0.19597990  0.00000000  0.00000000       0.002
   0.19849246  0.00000000  0.00000000       0.002
   0.20100503  0.00000000  0.00000000       0.002
   0.20351759  0.00000000  0.00000000       0.002
   0.20603015  0.00000000  0.00000000       0.002
   0.20854271  0.00000000  0.00000000       0.002
   0.21105528  0.00000000  0.00000000       0.002
   0.21356784  0.00000000  0.00000000       0.002
   0.21608040  0.00000000  0.00000000       0.002
   0.21859296  0.00000000  0.00000000       0.002
   0.22110553  0.00000000  0.00000000       0.002
   0.22361809  0.00000000  0.00000000       0.002
   0.22613065  0.00000000  0.00000000       0.002
   0.22864322  0.00000000  0.00000000       0.002
   0.23115578  0.00000000  0.00000000       0.002
   0.23366834  0.00000000  0.00000000       0.002
   0.23618090  0.00000000  0.00000000       0.002
   0.23869347  0.00000000  0.00000000       0.002
   0.24120603  0.00000000  0.00000000       0.002
   0.24371859  0.00000000  0.00000000       0.002
   0.24623116  0.00000000  0.00000000       0.002
   0.24874372  0.00000000  0.00000000       0.002
   0.25125628  0.00000000  0.00000000       0.002
   0.25376884  0.00000000  0.00000000       0.002
   0.25628141  0.00000000  0.00000000       0.002
   0.25879397  0.00000000  0.00000000       0.002
   0.26130653  0.00000000  0.00000000       0.002
   0.26381910  0.00000000  0.00000000       0.002
   0.26633166  0.00000000  0.00000000       0.002
   0.26884422  0.00000000  0.00000000       0.002
   0.27135678  0.00000000  0.00000000       0.002
   0.27386935  0.00000000  0.00000000       0.002
   0.27638191  0.00000000  0.00000000       0.002
   0.27889447  0.00000000  0.00000000       0.002
   0.28140704  0.00000000  0.00000000       0.002
   0.28391960  0.00000000  0.00000000       0.002
   0.28643216  0.00000000  0.00000000       0.002
   0.28894472  0.00000000  0.00000000       0.002
   0.29145729  0.00000000  0.00000000       0.002
   0.29396985  0.00000000  0.00000000       0.002
   0.29648241  0.00000000  0.00000000       0.002
   0.29899497  0.00000000  0.00000000       0.002
   0.30150754  0.00000000  0.00000000       0.002
   0.30402010  0.00000000  0.00000000       0.002
   0.30653266  0.00000000  0.00000000       0.002
   0.30904523  0.00000000  0.00000000       0.002
   0.31155779  0.00000000  0.00000000       0.002
   0.31407035  0.00000000  0.00000000       0.002
   0.31658291  0.00000000  0.00000000       0.002
   0.31909548  0.00000000  0.00000000       0.002
   0.32160804  0.00000000  0.00000000       0.002
   0.32412060  0.00000000  0.00000000       0.002
   0.32663317  0.00000000  0.00000000       0.002
   0.32914573  0.00000000  0.00000000       0.002
   0.33165829  0.00000000  0.00000000       0.002
   0.33417085  0.00000000  0.00000000       0.002
   0.33668342  0.00000000  0.00000000       0.002
   0.33919598  0.00000000  0.00000000       0.002
   0.34170854  0.00000000  0.00000000       0.002
   0.34422111  0.00000000  0.00000000       0.002
   0.34673367  0.00000000  0.00000000       0.002
   0.34924623  0.00000000  0.00000000       0.002
   0.35175879  0.00000000  0.00000000       0.002
   0.35427136  0.00000000  0.00000000       0.002
   0.35678392  0.00000000  0.00000000       0.002
   0.35929648  0.00000000  0.00000000       0.002
   0.36180905  0.00000000  0.00000000       0.002
   0.36432161  0.00000000  0.00000000       0.002
   0.36683417  0.00000000  0.00000000       0.002
   0.36934673  0.00000000  0.00000000       0.002
   0.37185930  0.00000000  0.00000000       0.002
   0.37437186  0.00000000  0.00000000       0.002
   0.37688442  0.00000000  0.00000000       0.002
   0.37939698  0.00000000  0.00000000       0.002
   0.38190955  0.00000000  0.00000000       0.002
   0.38442211  0.00000000  0.00000000       0.002
   0.38693467  0.00000000  0.00000000       0.002
   0.38944724  0.00000000  0.00000000       0.002
   0.39195980  0.00000000  0.00000000       0.002
   0.39447236  0.00000000  0.00000000       0.002
   0.39698492  0.00000000  0.00000000       0.002
   0.39949749  0.00000000  0.00000000       0.002
   0.40201005  0.00000000  0.00000000       0.002
   0.40452261  0.00000000  0.00000000       0.002
   0.40703518  0.00000000  0.00000000       0.002
   0.40954774  0.00000000  0.00000000       0.002
   0.41206030  0.00000000  0.00000000       0.002
   0.41457286  0.00000000  0.00000000       0.002
   0.41708543  0.00000000  0.00000000       0.002
   0.41959799  0.00000000  0.00000000       0.002
   0.42211055  0.00000000  0.00000000       0.002
   0.42462312  0.00000000  0.00000000       0.002
   0.42713568  0.00000000  0.00000000       0.002
   0.42964824  0.00000000  0.00000000       0.002
   0.43216080  0.00000000  0.00000000       0.002
   0.43467337  0.00000000  0.00000000       0.002
   0.43718593  0.00000000  0.00000000       0.002
   0.43969849  0.00000000  0.00000000       0.002
   0.44221106  0.00000000  0.00000000       0.002
   0.44472362  0.00000000  0.00000000       0.002
   0.44723618  0.00000000  0.00000000       0.002
   0.44974874  0.00000000  0.00000000       0.002
   0.45226131  0.00000000  0.00000000       0.002
   0.45477387  0.00000000  0.00000000       0.002
   0.45728643  0.00000000  0.00000000       0.002
   0.45979899  0.00000000  0.00000000       0.002
   0.46231156  0.00000000  0.00000000       0.002
   0.46482412  0.00000000  0.00000000       0.002
   0.46733668  0.00000000  0.00000000       0.002
   0.46984925  0.00000000  0.00000000       0.002
   0.47236181  0.00000000  0.00000000       0.002
   0.47487437  0.00000000  0.00000000       0.002
   0.47738693  0.00000000  0.00000000       0.002
   0.47989950  0.00000000  0.00000000       0.002
   0.48241206  0.00000000  0.00000000       0.002
   0.48492462  0.00000000  0.00000000       0.002
   0.48743719  0.00000000  0.00000000       0.002
   0.48994975  0.00000000  0.00000000       0.002
   0.49246231  0.00000000  0.00000000       0.002
   0.49497487  0.00000000  0.00000000       0.002
   0.49748744  0.00000000  0.00000000       0.002
   0.50000000  0.00000000  0.00000000       0.002
   0.50000000  0.00000000  0.00000000       0.002
   0.50000000  0.00251256  0.00000000       0.002
   0.50000000  0.00502513  0.00000000       0.002
   0.50000000  0.00753769  0.00000000       0.002
   0.50000000  0.01005025  0.00000000       0.002
   0.50000000  0.01256281  0.00000000       0.002
   0.50000000  0.01507538  0.00000000       0.002
   0.50000000  0.01758794  0.00000000       0.002
   0.50000000  0.02010050  0.00000000       0.002
   0.50000000  0.02261307  0.00000000       0.002
   0.50000000  0.02512563  0.00000000       0.002
   0.50000000  0.02763819  0.00000000       0.002
   0.50000000  0.03015075  0.00000000       0.002
   0.50000000  0.03266332  0.00000000       0.002
   0.50000000  0.03517588  0.00000000       0.002
   0.50000000  0.03768844  0.00000000       0.002
   0.50000000  0.04020101  0.00000000       0.002
   0.50000000  0.04271357  0.00000000       0.002
   0.50000000  0.04522613  0.00000000       0.002
   0.50000000  0.04773869  0.00000000       0.002
   0.50000000  0.05025126  0.00000000       0.002
   0.50000000  0.05276382  0.00000000       0.002
   0.50000000  0.05527638  0.00000000       0.002
   0.50000000  0.05778894  0.00000000       0.002
   0.50000000  0.06030151  0.00000000       0.002
   0.50000000  0.06281407  0.00000000       0.002
   0.50000000  0.06532663  0.00000000       0.002
   0.50000000  0.06783920  0.00000000       0.002
   0.50000000  0.07035176  0.00000000       0.002
   0.50000000  0.07286432  0.00000000       0.002
   0.50000000  0.07537688  0.00000000       0.002
   0.50000000  0.07788945  0.00000000       0.002
   0.50000000  0.08040201  0.00000000       0.002
   0.50000000  0.08291457  0.00000000       0.002
   0.50000000  0.08542714  0.00000000       0.002
   0.50000000  0.08793970  0.00000000       0.002
   0.50000000  0.09045226  0.00000000       0.002
   0.50000000  0.09296482  0.00000000       0.002
   0.50000000  0.09547739  0.00000000       0.002
   0.50000000  0.09798995  0.00000000       0.002
   0.50000000  0.10050251  0.00000000       0.002
   0.50000000  0.10301508  0.00000000       0.002
   0.50000000  0.10552764  0.00000000       0.002
   0.50000000  0.10804020  0.00000000       0.002
   0.50000000  0.11055276  0.00000000       0.002
   0.50000000  0.11306533  0.00000000       0.002
   0.50000000  0.11557789  0.00000000       0.002
   0.50000000  0.11809045  0.00000000       0.002
   0.50000000  0.12060302  0.00000000       0.002
   0.50000000  0.12311558  0.00000000       0.002
   0.50000000  0.12562814  0.00000000       0.002
   0.50000000  0.12814070  0.00000000       0.002
   0.50000000  0.13065327  0.00000000       0.002
   0.50000000  0.13316583  0.00000000       0.002
   0.50000000  0.13567839  0.00000000       0.002
   0.50000000  0.13819095  0.00000000       0.002
   0.50000000  0.14070352  0.00000000       0.002
[...]
     21       4.0016      0.00000
     22       4.0016      0.00000
     23       4.5786      0.00000
     24       4.5786      0.00000

 k-point   599 :       0.5000    0.4975    0.0000
  band No.  band energies     occupation 
      1     -13.3292      1.00000
      2     -13.3292      1.00000
      3      -5.9651      1.00000
      4      -5.9651      1.00000
      5      -4.9778      1.00000
      6      -4.9778      1.00000
      7      -3.8185      1.00000
      8      -3.8185      1.00000
      9      -1.9496      1.00000
     10      -1.9496      1.00000
     11      -1.3646      1.00000
     12      -1.3646      1.00000
     13       0.8176      0.00000
     14       0.8176      0.00000
     15       1.5865      0.00000
     16       1.5865      0.00000
     17       2.1927      0.00000
     18       2.1927      0.00000
     19       3.9283      0.00000
     20       3.9283      0.00000
     21       4.0014      0.00000
     22       4.0014      0.00000
     23       4.5801      0.00000
     24       4.5802      0.00000

 k-point   600 :       0.5000    0.5000    0.0000
  band No.  band energies     occupation 
      1     -13.3292      1.00000
      2     -13.3292      1.00000
      3      -5.9651      1.00000
      4      -5.9651      1.00000
      5      -4.9778      1.00000
      6      -4.9778      1.00000
      7      -3.8185      1.00000
      8      -3.8185      1.00000
      9      -1.9496      1.00000
     10      -1.9496      1.00000
     11      -1.3647      1.00000
     12      -1.3647      1.00000
     13       0.8176      0.00000
     14       0.8176      0.00000
     15       1.5865      0.00000
     16       1.5865      0.00000
     17       2.1928      0.00000
     18       2.1928      0.00000
     19       3.9286      0.00000
     20       3.9286      0.00000
     21       4.0013      0.00000
     22       4.0013      0.00000
     23       4.5807      0.00000
     24       4.5807      0.00000


--------------------------------------------------------------------------------------------------------


 soft charge-density along one line, spin component           1
         0         1         2         3         4         5         6         7         8         9
 total charge-density along one line
 
 soft charge-density along one line, spin component           2
         0         1         2         3         4         5         6         7         8         9
 total charge-density along one line
 
 pseudopotential strength for first ion, spin component:           1
-10.876  -0.000   0.000   0.000  -0.000   0.000   0.000  -0.000  -0.000   0.000 -11.320  -0.000   0.000   0.000  -0.000   0.000
  0.000  -0.000 -11.281   0.000   0.000  -0.000  -0.000  -0.000   0.000  -0.000   0.000  -0.000 -11.717   0.000   0.000  -0.000
 -0.000  -0.000   0.000   0.000 -10.918   0.000  -0.000   0.000   0.000  -0.000  -0.000  -0.000   0.000   0.000 -11.362   0.000
  0.000   0.000  -0.000   0.000  -0.000  -0.000 -11.281   0.000   0.000  -0.000   0.000   0.000  -0.000   0.000  -0.000  -0.000
 -0.000  -0.000   0.000   0.000   0.000   0.000   0.000   0.000 -11.273   0.000  -0.000  -0.000   0.000   0.000   0.000   0.000
-11.320  -0.000   0.000   0.000  -0.000   0.000   0.000  -0.000  -0.000   0.000 -11.737  -0.000   0.000   0.000  -0.000   0.000
  0.000  -0.000 -11.717   0.000   0.000  -0.000  -0.000  -0.000   0.000  -0.000   0.000  -0.000 -12.126   0.000   0.000  -0.000
 -0.000  -0.000   0.000   0.000 -11.362   0.000  -0.000   0.000   0.000  -0.000  -0.000  -0.000   0.000   0.000 -11.779   0.000
  0.000   0.000  -0.000   0.000  -0.000  -0.000 -11.717   0.000   0.000  -0.000   0.000   0.000  -0.000   0.000  -0.000  -0.000
 -0.000  -0.000   0.000   0.000   0.000   0.000   0.000   0.000 -11.708   0.000  -0.000  -0.000   0.000   0.000   0.000   0.000
  0.000   0.000  -0.000   0.000   0.001   0.000  -0.000   0.000   0.000   0.000   0.000   0.000  -0.000   0.000   0.002   0.000
  0.000   0.000  -0.000   0.000   0.002   0.000  -0.000   0.000   0.000   0.000   0.000   0.000  -0.000   0.000   0.003   0.000
 -0.000   0.000   0.001   0.000  -0.000   0.000   0.000   0.000   0.000   0.000   0.000   0.000   0.001   0.000  -0.000   0.000
  0.000   0.000  -0.000   0.000   0.000   0.000  -0.000   0.000  -0.001   0.000   0.000   0.000  -0.000   0.000   0.000   0.000
 -0.000   0.000   0.000   0.000  -0.000   0.000  -0.001   0.000  -0.000   0.000  -0.000   0.000   0.000   0.000  -0.000   0.000
 -0.000   0.000   0.001   0.000  -0.000   0.000   0.000   0.000   0.000   0.000  -0.000   0.000   0.001   0.000  -0.000   0.000
  0.000   0.000  -0.000   0.000   0.000   0.000  -0.000   0.000  -0.001   0.000   0.000   0.000  -0.000   0.000   0.000   0.000
 -0.000   0.000   0.000   0.000  -0.000   0.000  -0.001   0.000  -0.000   0.000  -0.000   0.000   0.000   0.000  -0.000   0.000
 pseudopotential strength for first ion, spin component:           2
 -8.324  -0.000   0.000   0.000  -0.000  -0.000   0.000   0.000  -0.000   0.000  -8.806  -0.000   0.000   0.000  -0.000  -0.000
  0.000  -0.000  -6.703  -0.000   0.000   0.000  -0.000   0.000   0.000   0.000   0.000  -0.000  -7.166  -0.000   0.000   0.000
 -0.000   0.000   0.000  -0.000  -8.241  -0.000  -0.000   0.000   0.000   0.000  -0.000   0.000   0.000  -0.000  -8.722  -0.000
  0.000  -0.000  -0.000  -0.000  -0.000  -0.000  -6.703  -0.000   0.000   0.000   0.000  -0.000  -0.000  -0.000  -0.000  -0.000
 -0.000  -0.000   0.000  -0.000   0.000  -0.000   0.000  -0.000  -6.692  -0.000  -0.000  -0.000   0.000  -0.000   0.000  -0.000
 -8.806  -0.000   0.000   0.000  -0.000  -0.000   0.000   0.000  -0.000   0.000  -9.252  -0.000   0.000   0.000  -0.000  -0.000
  0.000  -0.000  -7.166  -0.000   0.000   0.000  -0.000   0.000   0.000   0.000   0.000  -0.000  -7.577  -0.000   0.000   0.000
 -0.000   0.000   0.000  -0.000  -8.722  -0.000  -0.000   0.000   0.000   0.000  -0.000   0.000   0.000  -0.000  -9.164  -0.000
  0.000  -0.000  -0.000  -0.000  -0.000  -0.000  -7.166  -0.000   0.000   0.000   0.000  -0.000  -0.000  -0.000  -0.000  -0.000
 -0.000  -0.000   0.000  -0.000   0.000  -0.000   0.000  -0.000  -7.155  -0.000  -0.000  -0.000   0.000  -0.000   0.000  -0.000
 -0.000   0.000   0.000   0.000   0.002   0.000  -0.000   0.000   0.000   0.000  -0.000   0.000   0.000   0.000   0.002   0.000
 -0.000   0.000   0.000   0.000   0.004   0.000  -0.000   0.000   0.000   0.000  -0.000   0.000   0.000   0.000   0.004   0.000
  0.000   0.000   0.004   0.000  -0.000   0.000  -0.000   0.000   0.000   0.000   0.000   0.000   0.003   0.000  -0.000   0.000
 -0.000   0.000  -0.000   0.000   0.000   0.000   0.000   0.000  -0.004   0.000  -0.000   0.000  -0.000   0.000   0.000   0.000
 -0.000   0.000  -0.000   0.000   0.000   0.000  -0.004   0.000   0.000   0.000  -0.000   0.000  -0.000   0.000   0.000   0.000
  0.000   0.000   0.004   0.000  -0.000   0.000  -0.000   0.000   0.000   0.000   0.000   0.000   0.004   0.000  -0.000   0.000
 -0.000   0.000  -0.000   0.000   0.000   0.000   0.000   0.000  -0.004   0.000  -0.000   0.000  -0.000   0.000   0.000   0.000
 -0.000   0.000  -0.000   0.000   0.000   0.000  -0.004   0.000   0.000   0.000  -0.000   0.000  -0.000   0.000   0.000   0.000
 total augmentation occupancy for first ion, spin component:           1
  1.400   0.000   0.000   0.000   0.000   0.000   0.000   0.000   0.000   0.000   0.000   0.000   0.000   0.000   0.000   0.000
  0.000   1.400   0.000   0.000   0.000   0.000   0.000   0.000   0.000   0.000   0.000   0.000   0.000   0.000   0.000   0.000
  0.000   0.000   1.400   0.000   0.000   0.000   0.000   0.000   0.000   0.000   0.000   0.000   0.000   0.000   0.000   0.000
  0.000   0.000   0.000   1.400   0.000   0.000   0.000   0.000   0.000   0.000   0.000   0.000   0.000   0.000   0.000   0.000
  0.000   0.000   0.000   0.000   1.400   0.000   0.000   0.000   0.000   0.000   0.000   0.000   0.000   0.000   0.000   0.000
  0.000   0.000   0.000   0.000   0.000   0.000   0.000   0.000   0.000   0.000   0.000   0.000   0.000   0.000   0.000   0.000
  0.000   0.000   0.000   0.000   0.000   0.000   0.000   0.000   0.000   0.000   0.000   0.000   0.000   0.000   0.000   0.000
  0.000   0.000   0.000   0.000   0.000   0.000   0.000   0.000   0.000   0.000   0.000   0.000   0.000   0.000   0.000   0.000
  0.000   0.000   0.000   0.000   0.000   0.000   0.000   0.000   0.000   0.000   0.000   0.000   0.000   0.000   0.000   0.000
  0.000   0.000   0.000   0.000   0.000   0.000   0.000   0.000   0.000   0.000   0.000   0.000   0.000   0.000   0.000   0.000
  0.000   0.000   0.000   0.000   0.000   0.000   0.000   0.000   0.000   0.000   1.000   0.000   0.000   0.000   0.000   0.000
  0.000   0.000   0.000   0.000   0.000   0.000   0.000   0.000   0.000   0.000   0.000   0.000   0.000   0.000   0.000   0.000
  0.000   0.000   0.000   0.000   0.000   0.000   0.000   0.000   0.000   0.000   0.000   0.000   0.000   0.000   0.000   0.000
  0.000   0.000   0.000   0.000   0.000   0.000   0.000   0.000   0.000   0.000   0.000   0.000   0.000   0.000   0.000   0.000
  0.000   0.000   0.000   0.000   0.000   0.000   0.000   0.000   0.000   0.000   0.000   0.000   0.000   0.000   0.000   0.000
  0.000   0.000   0.000   0.000   0.000   0.000   0.000   0.000   0.000   0.000   0.000   0.000   0.000   0.000   0.000   0.000
  0.000   0.000   0.000   0.000   0.000   0.000   0.000   0.000   0.000   0.000   0.000   0.000   0.000   0.000   0.000   0.000
  0.000   0.000   0.000   0.000   0.000   0.000   0.000   0.000   0.000   0.000   0.000   0.000   0.000   0.000   0.000   0.000
 total augmentation occupancy for first ion, spin component:           2
  0.875   0.000   0.000   0.000   0.000   0.000   0.000   0.000   0.000   0.000   0.000   0.000   0.000   0.000   0.000   0.000
  0.000   0.875   0.000   0.000   0.000   0.000   0.000   0.000   0.000   0.000   0.000   0.000   0.000   0.000   0.000   0.000
  0.000   0.000   0.875   0.000   0.000   0.000   0.000   0.000   0.000   0.000   0.000   0.000   0.000   0.000   0.000   0.000
  0.000   0.000   0.000   0.875   0.000   0.000   0.000   0.000   0.000   0.000   0.000   0.000   0.000   0.000   0.000   0.000
  0.000   0.000   0.000   0.000   0.875   0.000   0.000   0.000   0.000   0.000   0.000   0.000   0.000   0.000   0.000   0.000
  0.000   0.000   0.000   0.000   0.000   0.000   0.000   0.000   0.000   0.000   0.000   0.000   0.000   0.000   0.000   0.000
  0.000   0.000   0.000   0.000   0.000   0.000   0.000   0.000   0.000   0.000   0.000   0.000   0.000   0.000   0.000   0.000
  0.000   0.000   0.000   0.000   0.000   0.000   0.000   0.000   0.000   0.000   0.000   0.000   0.000   0.000   0.000   0.000
  0.000   0.000   0.000   0.000   0.000   0.000   0.000   0.000   0.000   0.000   0.000   0.000   0.000   0.000   0.000   0.000
  0.000   0.000   0.000   0.000   0.000   0.000   0.000   0.000   0.000   0.000   0.000   0.000   0.000   0.000   0.000   0.000
  0.000   0.000   0.000   0.000   0.000   0.000   0.000   0.000   0.000   0.000   0.625   0.000   0.000   0.000   0.000   0.000
  0.000   0.000   0.000   0.000   0.000   0.000   0.000   0.000   0.000   0.000   0.000   0.000   0.000   0.000   0.000   0.000
  0.000   0.000   0.000   0.000   0.000   0.000   0.000   0.000   0.000   0.000   0.000   0.000   0.000   0.000   0.000   0.000
  0.000   0.000   0.000   0.000   0.000   0.000   0.000   0.000   0.000   0.000   0.000   0.000   0.000   0.000   0.000   0.000
  0.000   0.000   0.000   0.000   0.000   0.000   0.000   0.000   0.000   0.000   0.000   0.000   0.000   0.000   0.000   0.000
  0.000   0.000   0.000   0.000   0.000   0.000   0.000   0.000   0.000   0.000   0.000   0.000   0.000   0.000   0.000   0.000
  0.000   0.000   0.000   0.000   0.000   0.000   0.000   0.000   0.000   0.000   0.000   0.000   0.000   0.000   0.000   0.000
  0.000   0.000   0.000   0.000   0.000   0.000   0.000   0.000   0.000   0.000   0.000   0.000   0.000   0.000   0.000   0.000


------------------------ aborting loop because EDIFF is reached ----------------------------------------


 


 total charge     
 
# of ion       s       p       d       tot
------------------------------------------
    1        0.336   0.392   6.258   6.986
    2        0.336   0.392   6.258   6.986
    3        1.432   2.433   0.041   3.905
    4        1.432   2.433   0.041   3.905
    5        0.077   0.161   0.000   0.238
    6        0.077   0.161   0.000   0.238
--------------------------------------------------
tot          3.689   5.971  12.598  22.259
 


 magnetization (x)
 
# of ion       s       p       d       tot
------------------------------------------
    1       -0.001  -0.020   3.057   3.036
    2       -0.001  -0.020   3.057   3.036
    3        0.005   0.058  -0.005   0.059
    4        0.005   0.058  -0.005   0.059
    5       -0.010  -0.011   0.000  -0.022
    6       -0.010  -0.011   0.000  -0.022
--------------------------------------------------
tot         -0.011   0.054   6.104   6.148
 
    CHARGE:  cpu time    0.6575: real time    0.6575
    FORLOC:  cpu time    0.0029: real time    0.0029
    FORNL :  cpu time    3.5939: real time    3.5940
    STRESS:  cpu time    5.5145: real time    5.5147
    FORCOR:  cpu time    0.0374: real time    0.0374
    FORHAR:  cpu time    0.0071: real time    0.0071
    OFIELD:  cpu time    0.0004: real time    0.0004

  FORCE on cell =-STRESS in cart. coord.  units (eV):
  Direction    XX          YY          ZZ          XY          YZ          ZX
  --------------------------------------------------------------------------------------
  Alpha Z    32.03850    32.03850    32.03850
  Ewald    5411.83700  5411.83700 -6481.36282     0.00000     0.00000    -0.00000
  Hartree  5787.01927  5787.01927 -5580.64355    -0.00000    -0.00000    -0.00000
  E(xc)    -129.64140  -129.64140  -129.54527    -0.00000    -0.00000    -0.00000
  Local  -11498.85493-11498.85493 11767.25406    -0.00000     0.00000    -0.00000
  n-local    28.89897    31.66487    26.04324     0.09591    -0.00000     0.00000
  augment    68.83634    68.83634    68.71274    -0.00000     0.00000     0.00000
  Kinetic   291.53168   301.33024   294.07330     0.29942    -0.00000    -0.00000
  Fock        0.00000     0.00000     0.00000     0.00000     0.00000     0.00000
  -------------------------------------------------------------------------------------
  Total      -2.05234    -2.05234    -3.42981     0.00000     0.00000     0.00000
  in kB     -11.93370   -11.93370   -19.94322     0.00000     0.00000     0.00000
  external pressure =      -14.60 kB  Pullay stress =        0.00 kB


 VOLUME and BASIS-vectors are now :
 -----------------------------------------------------------------------------
  energy-cutoff  :      400.00
  volume of cell :      275.54
      direct lattice vectors                 reciprocal lattice vectors
     3.711739779  0.000000000  0.000000000     0.269415438  0.000000000  0.000000000
     0.000000000  3.711739779  0.000000000     0.000000000  0.269415438  0.000000000
     0.000000000  0.000000000 20.000000000     0.000000000  0.000000000  0.050000000

  length of vectors
     3.711739779  3.711739779 20.000000000     0.269415438  0.269415438  0.050000000


 FORCES acting on ions
    electron-ion (+dipol)            ewald-force                    non-local-force                 convergence-correction
 -----------------------------------------------------------------------------------------------
   -.353E-13 0.434E-14 -.469E-06   -.585E-15 -.843E-14 -.195E-05   0.000E+00 0.000E+00 0.000E+00   -.204E-13 -.159E-13 -.135E-04
   0.207E-12 0.224E-12 -.469E-06   0.156E-14 0.425E-15 -.195E-05   0.414E-24 0.000E+00 0.000E+00   0.336E-13 -.178E-13 -.135E-04
   -.202E-14 -.127E-12 0.649E+03   -.176E-14 0.166E-14 -.652E+03   0.000E+00 0.248E-23 0.286E+01   -.129E-13 0.256E-13 0.775E+00
   0.155E-13 0.675E-13 -.649E+03   -.204E-14 0.445E-14 0.652E+03   0.000E+00 -.248E-23 -.286E+01   0.301E-14 0.641E-14 -.775E+00
   0.435E-15 -.252E-13 -.118E+03   0.204E-15 0.117E-16 0.116E+03   0.207E-24 0.155E-24 0.142E+01   -.279E-15 0.562E-16 -.783E-01
   0.156E-14 -.181E-14 0.118E+03   -.125E-15 0.785E-16 -.116E+03   -.103E-24 -.414E-24 -.142E+01   0.346E-15 -.386E-15 0.783E-01
 -----------------------------------------------------------------------------------------------
   0.187E-12 0.142E-12 0.533E-03   -.274E-14 -.181E-14 0.227E-12   0.517E-24 -.258E-24 -.666E-15   0.331E-14 -.200E-14 -.196E-03
 
 
 POSITION                                       TOTAL-FORCE (eV/Angst)
 -----------------------------------------------------------------------------------
      0.00000      0.00000     10.00000        -0.000000     -0.000000      0.000000
      1.85587      1.85587     10.00000         0.000000     -0.000000      0.000000
      0.00000      1.85587      8.18068         0.000000     -0.000000      0.068444
      1.85587      0.00000     11.81932         0.000000      0.000000     -0.068444
      0.00000      1.85587     12.19109         0.000000     -0.000000     -0.061042
      1.85587      0.00000      7.80891         0.000000     -0.000000      0.061042
 -----------------------------------------------------------------------------------
    total drift:                                0.000000      0.000000      0.000337


--------------------------------------------------------------------------------------------------------



  FREE ENERGIE OF THE ION-ELECTRON SYSTEM (eV)
  ---------------------------------------------------
  free  energy   TOTEN  =       -26.54598185 eV

  energy  without entropy=      -26.54545737  energy(sigma->0) =      -26.54571961
 


--------------------------------------------------------------------------------------------------------


    POTLOK:  cpu time    0.0398: real time    0.0398


--------------------------------------------------------------------------------------------------------


     LOOP+:  cpu time  151.5714: real time  151.8333
    4ORBIT:  cpu time    0.0000: real time    0.0000
 


 total charge     
 
# of ion       s       p       d       tot
------------------------------------------
    1        0.336   0.392   6.258   6.986
    2        0.336   0.392   6.258   6.986
    3        1.432   2.433   0.041   3.905
    4        1.432   2.433   0.041   3.905
    5        0.077   0.161   0.000   0.238
    6        0.077   0.161   0.000   0.238
--------------------------------------------------
tot          3.689   5.971  12.598  22.259
 


 magnetization (x)
 
# of ion       s       p       d       tot
------------------------------------------
    1       -0.001  -0.020   3.057   3.036
    2       -0.001  -0.020   3.057   3.036
    3        0.005   0.058  -0.005   0.059
    4        0.005   0.058  -0.005   0.059
    5       -0.010  -0.011   0.000  -0.022
    6       -0.010  -0.011   0.000  -0.022
--------------------------------------------------
tot         -0.011   0.054   6.104   6.148
 

 total amount of memory used by VASP MPI-rank0   360314. kBytes
=======================================================================

   base      :      30000. kBytes
   nonl-proj :     221957. kBytes
   fftplans  :       2251. kBytes
   grid      :       5160. kBytes
   one-center:         31. kBytes
   wavefun   :     100915. kBytes
 
  
  
 General timing and accounting informations for this job:
 ========================================================
  
                  Total CPU time used (sec):      164.394
                            User time (sec):      163.338
                          System time (sec):        1.056
                         Elapsed time (sec):      166.673
  
                   Maximum memory used (kb):      419048.
                   Average memory used (kb):           0.
  
                          Minor page faults:        12497
                          Major page faults:            0
                 Voluntary context switches:          455
